+ 0 1 2 cbr 1000 ------- 2 1.0 3.0 0 0
- 0 1 2 cbr 1000 ------- 2 1.0 3.0 0 0
+ 0 0 2 tcp 40 ------- 1 0.0 3.1 0 1
- 0 0 2 tcp 40 ------- 1 0.0 3.1 0 1
+ 0.004762 1 2 cbr 1000 ------- 2 1.0 3.0 1 2
- 0.004762 1 2 cbr 1000 ------- 2 1.0 3.0 1 2
+ 0.009524 1 2 cbr 1000 ------- 2 1.0 3.0 2 3
- 0.009524 1 2 cbr 1000 ------- 2 1.0 3.0 2 3
r 0.01016 0 2 tcp 40 ------- 1 0.0 3.1 0 1
+ 0.01016 2 3 tcp 40 ------- 1 0.0 3.1 0 1
- 0.01016 2 3 tcp 40 ------- 1 0.0 3.1 0 1
r 0.014 1 2 cbr 1000 ------- 2 1.0 3.0 0 0
+ 0.014 2 3 cbr 1000 ------- 2 1.0 3.0 0 0
- 0.014 2 3 cbr 1000 ------- 2 1.0 3.0 0 0
+ 0.014286 1 2 cbr 1000 ------- 2 1.0 3.0 3 4
- 0.014286 1 2 cbr 1000 ------- 2 1.0 3.0 3 4
r 0.018762 1 2 cbr 1000 ------- 2 1.0 3.0 1 2
+ 0.018762 2 3 cbr 1000 ------- 2 1.0 3.0 1 2
+ 0.019048 1 2 cbr 1000 ------- 2 1.0 3.0 4 5
- 0.019048 1 2 cbr 1000 ------- 2 1.0 3.0 4 5
r 0.023524 1 2 cbr 1000 ------- 2 1.0 3.0 2 3
+ 0.023524 2 3 cbr 1000 ------- 2 1.0 3.0 2 3
+ 0.02381 1 2 cbr 1000 ------- 2 1.0 3.0 5 6
- 0.02381 1 2 cbr 1000 ------- 2 1.0 3.0 5 6
r 0.0258 2 3 tcp 40 ------- 1 0.0 3.1 0 1
+ 0.0258 3 2 ack 40 ------- 1 3.1 0.0 0 7
- 0.0258 3 2 ack 40 ------- 1 3.1 0.0 0 7
r 0.028286 1 2 cbr 1000 ------- 2 1.0 3.0 3 4
+ 0.028286 2 3 cbr 1000 ------- 2 1.0 3.0 3 4
+ 0.028571 1 2 cbr 1000 ------- 2 1.0 3.0 6 8
- 0.028571 1 2 cbr 1000 ------- 2 1.0 3.0 6 8
- 0.03 2 3 cbr 1000 ------- 2 1.0 3.0 1 2
r 0.033048 1 2 cbr 1000 ------- 2 1.0 3.0 4 5
+ 0.033048 2 3 cbr 1000 ------- 2 1.0 3.0 4 5
+ 0.033333 1 2 cbr 1000 ------- 2 1.0 3.0 7 9
- 0.033333 1 2 cbr 1000 ------- 2 1.0 3.0 7 9
r 0.03781 1 2 cbr 1000 ------- 2 1.0 3.0 5 6
+ 0.03781 2 3 cbr 1000 ------- 2 1.0 3.0 5 6
+ 0.038095 1 2 cbr 1000 ------- 2 1.0 3.0 8 10
- 0.038095 1 2 cbr 1000 ------- 2 1.0 3.0 8 10
r 0.04144 3 2 ack 40 ------- 1 3.1 0.0 0 7
+ 0.04144 2 0 ack 40 ------- 1 3.1 0.0 0 7
- 0.04144 2 0 ack 40 ------- 1 3.1 0.0 0 7
r 0.042571 1 2 cbr 1000 ------- 2 1.0 3.0 6 8
+ 0.042571 2 3 cbr 1000 ------- 2 1.0 3.0 6 8
+ 0.042857 1 2 cbr 1000 ------- 2 1.0 3.0 9 11
- 0.042857 1 2 cbr 1000 ------- 2 1.0 3.0 9 11
r 0.045 2 3 cbr 1000 ------- 2 1.0 3.0 0 0
- 0.046 2 3 cbr 1000 ------- 2 1.0 3.0 2 3
r 0.047333 1 2 cbr 1000 ------- 2 1.0 3.0 7 9
+ 0.047333 2 3 cbr 1000 ------- 2 1.0 3.0 7 9
+ 0.047619 1 2 cbr 1000 ------- 2 1.0 3.0 10 12
- 0.047619 1 2 cbr 1000 ------- 2 1.0 3.0 10 12
r 0.0516 2 0 ack 40 ------- 1 3.1 0.0 0 7
+ 0.0516 0 2 tcp 1040 ------- 1 0.0 3.1 1 13
- 0.0516 0 2 tcp 1040 ------- 1 0.0 3.1 1 13
+ 0.0516 0 2 tcp 1040 ------- 1 0.0 3.1 2 14
r 0.052095 1 2 cbr 1000 ------- 2 1.0 3.0 8 10
+ 0.052095 2 3 cbr 1000 ------- 2 1.0 3.0 8 10
+ 0.052381 1 2 cbr 1000 ------- 2 1.0 3.0 11 15
- 0.052381 1 2 cbr 1000 ------- 2 1.0 3.0 11 15
- 0.05576 0 2 tcp 1040 ------- 1 0.0 3.1 2 14
r 0.056857 1 2 cbr 1000 ------- 2 1.0 3.0 9 11
+ 0.056857 2 3 cbr 1000 ------- 2 1.0 3.0 9 11
+ 0.057143 1 2 cbr 1000 ------- 2 1.0 3.0 12 16
- 0.057143 1 2 cbr 1000 ------- 2 1.0 3.0 12 16
r 0.061 2 3 cbr 1000 ------- 2 1.0 3.0 1 2
r 0.061619 1 2 cbr 1000 ------- 2 1.0 3.0 10 12
+ 0.061619 2 3 cbr 1000 ------- 2 1.0 3.0 10 12
+ 0.061905 1 2 cbr 1000 ------- 2 1.0 3.0 13 17
- 0.061905 1 2 cbr 1000 ------- 2 1.0 3.0 13 17
- 0.062 2 3 cbr 1000 ------- 2 1.0 3.0 3 4
r 0.06576 0 2 tcp 1040 ------- 1 0.0 3.1 1 13
+ 0.06576 2 3 tcp 1040 ------- 1 0.0 3.1 1 13
r 0.066381 1 2 cbr 1000 ------- 2 1.0 3.0 11 15
+ 0.066381 2 3 cbr 1000 ------- 2 1.0 3.0 11 15
+ 0.066667 1 2 cbr 1000 ------- 2 1.0 3.0 14 18
- 0.066667 1 2 cbr 1000 ------- 2 1.0 3.0 14 18
r 0.06992 0 2 tcp 1040 ------- 1 0.0 3.1 2 14
+ 0.06992 2 3 tcp 1040 ------- 1 0.0 3.1 2 14
r 0.071143 1 2 cbr 1000 ------- 2 1.0 3.0 12 16
+ 0.071143 2 3 cbr 1000 ------- 2 1.0 3.0 12 16
+ 0.071429 1 2 cbr 1000 ------- 2 1.0 3.0 15 19
- 0.071429 1 2 cbr 1000 ------- 2 1.0 3.0 15 19
r 0.075905 1 2 cbr 1000 ------- 2 1.0 3.0 13 17
+ 0.075905 2 3 cbr 1000 ------- 2 1.0 3.0 13 17
+ 0.07619 1 2 cbr 1000 ------- 2 1.0 3.0 16 20
- 0.07619 1 2 cbr 1000 ------- 2 1.0 3.0 16 20
r 0.077 2 3 cbr 1000 ------- 2 1.0 3.0 2 3
- 0.078 2 3 cbr 1000 ------- 2 1.0 3.0 4 5
r 0.080667 1 2 cbr 1000 ------- 2 1.0 3.0 14 18
+ 0.080667 2 3 cbr 1000 ------- 2 1.0 3.0 14 18
+ 0.080952 1 2 cbr 1000 ------- 2 1.0 3.0 17 21
- 0.080952 1 2 cbr 1000 ------- 2 1.0 3.0 17 21
r 0.085429 1 2 cbr 1000 ------- 2 1.0 3.0 15 19
+ 0.085429 2 3 cbr 1000 ------- 2 1.0 3.0 15 19
+ 0.085714 1 2 cbr 1000 ------- 2 1.0 3.0 18 22
- 0.085714 1 2 cbr 1000 ------- 2 1.0 3.0 18 22
r 0.09019 1 2 cbr 1000 ------- 2 1.0 3.0 16 20
+ 0.09019 2 3 cbr 1000 ------- 2 1.0 3.0 16 20
+ 0.090476 1 2 cbr 1000 ------- 2 1.0 3.0 19 23
- 0.090476 1 2 cbr 1000 ------- 2 1.0 3.0 19 23
r 0.093 2 3 cbr 1000 ------- 2 1.0 3.0 3 4
- 0.094 2 3 cbr 1000 ------- 2 1.0 3.0 5 6
r 0.094952 1 2 cbr 1000 ------- 2 1.0 3.0 17 21
+ 0.094952 2 3 cbr 1000 ------- 2 1.0 3.0 17 21
+ 0.095238 1 2 cbr 1000 ------- 2 1.0 3.0 20 24
- 0.095238 1 2 cbr 1000 ------- 2 1.0 3.0 20 24
r 0.099714 1 2 cbr 1000 ------- 2 1.0 3.0 18 22
+ 0.099714 2 3 cbr 1000 ------- 2 1.0 3.0 18 22
d 0.099714 2 3 cbr 1000 ------- 2 1.0 3.0 18 22
+ 0.1 1 2 cbr 1000 ------- 2 1.0 3.0 21 25
- 0.1 1 2 cbr 1000 ------- 2 1.0 3.0 21 25
r 0.104476 1 2 cbr 1000 ------- 2 1.0 3.0 19 23
+ 0.104476 2 3 cbr 1000 ------- 2 1.0 3.0 19 23
d 0.104476 2 3 cbr 1000 ------- 2 1.0 3.0 19 23
+ 0.104762 1 2 cbr 1000 ------- 2 1.0 3.0 22 26
- 0.104762 1 2 cbr 1000 ------- 2 1.0 3.0 22 26
r 0.109 2 3 cbr 1000 ------- 2 1.0 3.0 4 5
r 0.109238 1 2 cbr 1000 ------- 2 1.0 3.0 20 24
+ 0.109238 2 3 cbr 1000 ------- 2 1.0 3.0 20 24
d 0.109238 2 3 cbr 1000 ------- 2 1.0 3.0 20 24
+ 0.109524 1 2 cbr 1000 ------- 2 1.0 3.0 23 27
- 0.109524 1 2 cbr 1000 ------- 2 1.0 3.0 23 27
- 0.11 2 3 cbr 1000 ------- 2 1.0 3.0 6 8
r 0.114 1 2 cbr 1000 ------- 2 1.0 3.0 21 25
+ 0.114 2 3 cbr 1000 ------- 2 1.0 3.0 21 25
+ 0.114286 1 2 cbr 1000 ------- 2 1.0 3.0 24 28
- 0.114286 1 2 cbr 1000 ------- 2 1.0 3.0 24 28
r 0.118762 1 2 cbr 1000 ------- 2 1.0 3.0 22 26
+ 0.118762 2 3 cbr 1000 ------- 2 1.0 3.0 22 26
d 0.118762 2 3 cbr 1000 ------- 2 1.0 3.0 22 26
+ 0.119048 1 2 cbr 1000 ------- 2 1.0 3.0 25 29
- 0.119048 1 2 cbr 1000 ------- 2 1.0 3.0 25 29
r 0.123524 1 2 cbr 1000 ------- 2 1.0 3.0 23 27
+ 0.123524 2 3 cbr 1000 ------- 2 1.0 3.0 23 27
d 0.123524 2 3 cbr 1000 ------- 2 1.0 3.0 23 27
+ 0.12381 1 2 cbr 1000 ------- 2 1.0 3.0 26 30
- 0.12381 1 2 cbr 1000 ------- 2 1.0 3.0 26 30
r 0.125 2 3 cbr 1000 ------- 2 1.0 3.0 5 6
- 0.126 2 3 cbr 1000 ------- 2 1.0 3.0 7 9
r 0.128286 1 2 cbr 1000 ------- 2 1.0 3.0 24 28
+ 0.128286 2 3 cbr 1000 ------- 2 1.0 3.0 24 28
+ 0.128571 1 2 cbr 1000 ------- 2 1.0 3.0 27 31
- 0.128571 1 2 cbr 1000 ------- 2 1.0 3.0 27 31
r 0.133048 1 2 cbr 1000 ------- 2 1.0 3.0 25 29
+ 0.133048 2 3 cbr 1000 ------- 2 1.0 3.0 25 29
d 0.133048 2 3 cbr 1000 ------- 2 1.0 3.0 25 29
+ 0.133333 1 2 cbr 1000 ------- 2 1.0 3.0 28 32
- 0.133333 1 2 cbr 1000 ------- 2 1.0 3.0 28 32
r 0.13781 1 2 cbr 1000 ------- 2 1.0 3.0 26 30
+ 0.13781 2 3 cbr 1000 ------- 2 1.0 3.0 26 30
d 0.13781 2 3 cbr 1000 ------- 2 1.0 3.0 26 30
+ 0.138095 1 2 cbr 1000 ------- 2 1.0 3.0 29 33
- 0.138095 1 2 cbr 1000 ------- 2 1.0 3.0 29 33
r 0.141 2 3 cbr 1000 ------- 2 1.0 3.0 6 8
- 0.142 2 3 cbr 1000 ------- 2 1.0 3.0 8 10
r 0.142571 1 2 cbr 1000 ------- 2 1.0 3.0 27 31
+ 0.142571 2 3 cbr 1000 ------- 2 1.0 3.0 27 31
+ 0.142857 1 2 cbr 1000 ------- 2 1.0 3.0 30 34
- 0.142857 1 2 cbr 1000 ------- 2 1.0 3.0 30 34
r 0.147333 1 2 cbr 1000 ------- 2 1.0 3.0 28 32
+ 0.147333 2 3 cbr 1000 ------- 2 1.0 3.0 28 32
d 0.147333 2 3 cbr 1000 ------- 2 1.0 3.0 28 32
+ 0.147619 1 2 cbr 1000 ------- 2 1.0 3.0 31 35
- 0.147619 1 2 cbr 1000 ------- 2 1.0 3.0 31 35
r 0.152095 1 2 cbr 1000 ------- 2 1.0 3.0 29 33
+ 0.152095 2 3 cbr 1000 ------- 2 1.0 3.0 29 33
d 0.152095 2 3 cbr 1000 ------- 2 1.0 3.0 29 33
+ 0.152381 1 2 cbr 1000 ------- 2 1.0 3.0 32 36
- 0.152381 1 2 cbr 1000 ------- 2 1.0 3.0 32 36
r 0.156857 1 2 cbr 1000 ------- 2 1.0 3.0 30 34
+ 0.156857 2 3 cbr 1000 ------- 2 1.0 3.0 30 34
d 0.156857 2 3 cbr 1000 ------- 2 1.0 3.0 30 34
r 0.157 2 3 cbr 1000 ------- 2 1.0 3.0 7 9
+ 0.157143 1 2 cbr 1000 ------- 2 1.0 3.0 33 37
- 0.157143 1 2 cbr 1000 ------- 2 1.0 3.0 33 37
- 0.158 2 3 cbr 1000 ------- 2 1.0 3.0 9 11
r 0.161619 1 2 cbr 1000 ------- 2 1.0 3.0 31 35
+ 0.161619 2 3 cbr 1000 ------- 2 1.0 3.0 31 35
+ 0.161905 1 2 cbr 1000 ------- 2 1.0 3.0 34 38
- 0.161905 1 2 cbr 1000 ------- 2 1.0 3.0 34 38
r 0.166381 1 2 cbr 1000 ------- 2 1.0 3.0 32 36
+ 0.166381 2 3 cbr 1000 ------- 2 1.0 3.0 32 36
d 0.166381 2 3 cbr 1000 ------- 2 1.0 3.0 32 36
+ 0.166667 1 2 cbr 1000 ------- 2 1.0 3.0 35 39
- 0.166667 1 2 cbr 1000 ------- 2 1.0 3.0 35 39
r 0.171143 1 2 cbr 1000 ------- 2 1.0 3.0 33 37
+ 0.171143 2 3 cbr 1000 ------- 2 1.0 3.0 33 37
d 0.171143 2 3 cbr 1000 ------- 2 1.0 3.0 33 37
+ 0.171429 1 2 cbr 1000 ------- 2 1.0 3.0 36 40
- 0.171429 1 2 cbr 1000 ------- 2 1.0 3.0 36 40
r 0.173 2 3 cbr 1000 ------- 2 1.0 3.0 8 10
- 0.174 2 3 cbr 1000 ------- 2 1.0 3.0 10 12
r 0.175905 1 2 cbr 1000 ------- 2 1.0 3.0 34 38
+ 0.175905 2 3 cbr 1000 ------- 2 1.0 3.0 34 38
+ 0.17619 1 2 cbr 1000 ------- 2 1.0 3.0 37 41
- 0.17619 1 2 cbr 1000 ------- 2 1.0 3.0 37 41
r 0.180667 1 2 cbr 1000 ------- 2 1.0 3.0 35 39
+ 0.180667 2 3 cbr 1000 ------- 2 1.0 3.0 35 39
d 0.180667 2 3 cbr 1000 ------- 2 1.0 3.0 35 39
+ 0.180952 1 2 cbr 1000 ------- 2 1.0 3.0 38 42
- 0.180952 1 2 cbr 1000 ------- 2 1.0 3.0 38 42
r 0.185429 1 2 cbr 1000 ------- 2 1.0 3.0 36 40
+ 0.185429 2 3 cbr 1000 ------- 2 1.0 3.0 36 40
d 0.185429 2 3 cbr 1000 ------- 2 1.0 3.0 36 40
+ 0.185714 1 2 cbr 1000 ------- 2 1.0 3.0 39 43
- 0.185714 1 2 cbr 1000 ------- 2 1.0 3.0 39 43
r 0.189 2 3 cbr 1000 ------- 2 1.0 3.0 9 11
- 0.19 2 3 tcp 1040 ------- 1 0.0 3.1 1 13
r 0.19019 1 2 cbr 1000 ------- 2 1.0 3.0 37 41
+ 0.19019 2 3 cbr 1000 ------- 2 1.0 3.0 37 41
+ 0.190476 1 2 cbr 1000 ------- 2 1.0 3.0 40 44
- 0.190476 1 2 cbr 1000 ------- 2 1.0 3.0 40 44
r 0.194952 1 2 cbr 1000 ------- 2 1.0 3.0 38 42
+ 0.194952 2 3 cbr 1000 ------- 2 1.0 3.0 38 42
d 0.194952 2 3 cbr 1000 ------- 2 1.0 3.0 38 42
+ 0.195238 1 2 cbr 1000 ------- 2 1.0 3.0 41 45
- 0.195238 1 2 cbr 1000 ------- 2 1.0 3.0 41 45
r 0.199714 1 2 cbr 1000 ------- 2 1.0 3.0 39 43
+ 0.199714 2 3 cbr 1000 ------- 2 1.0 3.0 39 43
d 0.199714 2 3 cbr 1000 ------- 2 1.0 3.0 39 43
+ 0.2 1 2 cbr 1000 ------- 2 1.0 3.0 42 46
- 0.2 1 2 cbr 1000 ------- 2 1.0 3.0 42 46
r 0.204476 1 2 cbr 1000 ------- 2 1.0 3.0 40 44
+ 0.204476 2 3 cbr 1000 ------- 2 1.0 3.0 40 44
d 0.204476 2 3 cbr 1000 ------- 2 1.0 3.0 40 44
+ 0.204762 1 2 cbr 1000 ------- 2 1.0 3.0 43 47
- 0.204762 1 2 cbr 1000 ------- 2 1.0 3.0 43 47
r 0.205 2 3 cbr 1000 ------- 2 1.0 3.0 10 12
- 0.20664 2 3 cbr 1000 ------- 2 1.0 3.0 11 15
r 0.209238 1 2 cbr 1000 ------- 2 1.0 3.0 41 45
+ 0.209238 2 3 cbr 1000 ------- 2 1.0 3.0 41 45
+ 0.209524 1 2 cbr 1000 ------- 2 1.0 3.0 44 48
- 0.209524 1 2 cbr 1000 ------- 2 1.0 3.0 44 48
r 0.214 1 2 cbr 1000 ------- 2 1.0 3.0 42 46
+ 0.214 2 3 cbr 1000 ------- 2 1.0 3.0 42 46
d 0.214 2 3 cbr 1000 ------- 2 1.0 3.0 42 46
+ 0.214286 1 2 cbr 1000 ------- 2 1.0 3.0 45 49
- 0.214286 1 2 cbr 1000 ------- 2 1.0 3.0 45 49
r 0.218762 1 2 cbr 1000 ------- 2 1.0 3.0 43 47
+ 0.218762 2 3 cbr 1000 ------- 2 1.0 3.0 43 47
d 0.218762 2 3 cbr 1000 ------- 2 1.0 3.0 43 47
+ 0.219048 1 2 cbr 1000 ------- 2 1.0 3.0 46 50
- 0.219048 1 2 cbr 1000 ------- 2 1.0 3.0 46 50
r 0.22164 2 3 tcp 1040 ------- 1 0.0 3.1 1 13
+ 0.22164 3 2 ack 40 ------- 1 3.1 0.0 1 51
- 0.22164 3 2 ack 40 ------- 1 3.1 0.0 1 51
- 0.22264 2 3 tcp 1040 ------- 1 0.0 3.1 2 14
r 0.223524 1 2 cbr 1000 ------- 2 1.0 3.0 44 48
+ 0.223524 2 3 cbr 1000 ------- 2 1.0 3.0 44 48
+ 0.22381 1 2 cbr 1000 ------- 2 1.0 3.0 47 52
- 0.22381 1 2 cbr 1000 ------- 2 1.0 3.0 47 52
r 0.228286 1 2 cbr 1000 ------- 2 1.0 3.0 45 49
+ 0.228286 2 3 cbr 1000 ------- 2 1.0 3.0 45 49
d 0.228286 2 3 cbr 1000 ------- 2 1.0 3.0 45 49
+ 0.228571 1 2 cbr 1000 ------- 2 1.0 3.0 48 53
- 0.228571 1 2 cbr 1000 ------- 2 1.0 3.0 48 53
r 0.233048 1 2 cbr 1000 ------- 2 1.0 3.0 46 50
+ 0.233048 2 3 cbr 1000 ------- 2 1.0 3.0 46 50
d 0.233048 2 3 cbr 1000 ------- 2 1.0 3.0 46 50
+ 0.233333 1 2 cbr 1000 ------- 2 1.0 3.0 49 54
- 0.233333 1 2 cbr 1000 ------- 2 1.0 3.0 49 54
r 0.23728 3 2 ack 40 ------- 1 3.1 0.0 1 51
+ 0.23728 2 0 ack 40 ------- 1 3.1 0.0 1 51
- 0.23728 2 0 ack 40 ------- 1 3.1 0.0 1 51
r 0.23764 2 3 cbr 1000 ------- 2 1.0 3.0 11 15
r 0.23781 1 2 cbr 1000 ------- 2 1.0 3.0 47 52
+ 0.23781 2 3 cbr 1000 ------- 2 1.0 3.0 47 52
d 0.23781 2 3 cbr 1000 ------- 2 1.0 3.0 47 52
+ 0.238095 1 2 cbr 1000 ------- 2 1.0 3.0 50 55
- 0.238095 1 2 cbr 1000 ------- 2 1.0 3.0 50 55
- 0.23928 2 3 cbr 1000 ------- 2 1.0 3.0 12 16
r 0.242571 1 2 cbr 1000 ------- 2 1.0 3.0 48 53
+ 0.242571 2 3 cbr 1000 ------- 2 1.0 3.0 48 53
+ 0.242857 1 2 cbr 1000 ------- 2 1.0 3.0 51 56
- 0.242857 1 2 cbr 1000 ------- 2 1.0 3.0 51 56
r 0.247333 1 2 cbr 1000 ------- 2 1.0 3.0 49 54
+ 0.247333 2 3 cbr 1000 ------- 2 1.0 3.0 49 54
d 0.247333 2 3 cbr 1000 ------- 2 1.0 3.0 49 54
r 0.24744 2 0 ack 40 ------- 1 3.1 0.0 1 51
+ 0.24744 0 2 tcp 1040 ------- 1 0.0 3.1 3 57
- 0.24744 0 2 tcp 1040 ------- 1 0.0 3.1 3 57
+ 0.24744 0 2 tcp 1040 ------- 1 0.0 3.1 4 58
+ 0.247619 1 2 cbr 1000 ------- 2 1.0 3.0 52 59
- 0.247619 1 2 cbr 1000 ------- 2 1.0 3.0 52 59
- 0.2516 0 2 tcp 1040 ------- 1 0.0 3.1 4 58
r 0.252095 1 2 cbr 1000 ------- 2 1.0 3.0 50 55
+ 0.252095 2 3 cbr 1000 ------- 2 1.0 3.0 50 55
d 0.252095 2 3 cbr 1000 ------- 2 1.0 3.0 50 55
+ 0.252381 1 2 cbr 1000 ------- 2 1.0 3.0 53 60
- 0.252381 1 2 cbr 1000 ------- 2 1.0 3.0 53 60
r 0.25428 2 3 tcp 1040 ------- 1 0.0 3.1 2 14
+ 0.25428 3 2 ack 40 ------- 1 3.1 0.0 2 61
- 0.25428 3 2 ack 40 ------- 1 3.1 0.0 2 61
- 0.25528 2 3 cbr 1000 ------- 2 1.0 3.0 13 17
r 0.256857 1 2 cbr 1000 ------- 2 1.0 3.0 51 56
+ 0.256857 2 3 cbr 1000 ------- 2 1.0 3.0 51 56
+ 0.257143 1 2 cbr 1000 ------- 2 1.0 3.0 54 62
- 0.257143 1 2 cbr 1000 ------- 2 1.0 3.0 54 62
r 0.2616 0 2 tcp 1040 ------- 1 0.0 3.1 3 57
+ 0.2616 2 3 tcp 1040 ------- 1 0.0 3.1 3 57
d 0.2616 2 3 tcp 1040 ------- 1 0.0 3.1 3 57
r 0.261619 1 2 cbr 1000 ------- 2 1.0 3.0 52 59
+ 0.261619 2 3 cbr 1000 ------- 2 1.0 3.0 52 59
d 0.261619 2 3 cbr 1000 ------- 2 1.0 3.0 52 59
+ 0.261905 1 2 cbr 1000 ------- 2 1.0 3.0 55 63
- 0.261905 1 2 cbr 1000 ------- 2 1.0 3.0 55 63
r 0.26576 0 2 tcp 1040 ------- 1 0.0 3.1 4 58
+ 0.26576 2 3 tcp 1040 ------- 1 0.0 3.1 4 58
d 0.26576 2 3 tcp 1040 ------- 1 0.0 3.1 4 58
r 0.266381 1 2 cbr 1000 ------- 2 1.0 3.0 53 60
+ 0.266381 2 3 cbr 1000 ------- 2 1.0 3.0 53 60
d 0.266381 2 3 cbr 1000 ------- 2 1.0 3.0 53 60
+ 0.266667 1 2 cbr 1000 ------- 2 1.0 3.0 56 64
- 0.266667 1 2 cbr 1000 ------- 2 1.0 3.0 56 64
r 0.26992 3 2 ack 40 ------- 1 3.1 0.0 2 61
+ 0.26992 2 0 ack 40 ------- 1 3.1 0.0 2 61
- 0.26992 2 0 ack 40 ------- 1 3.1 0.0 2 61
r 0.27028 2 3 cbr 1000 ------- 2 1.0 3.0 12 16
r 0.271143 1 2 cbr 1000 ------- 2 1.0 3.0 54 62
+ 0.271143 2 3 cbr 1000 ------- 2 1.0 3.0 54 62
d 0.271143 2 3 cbr 1000 ------- 2 1.0 3.0 54 62
- 0.27128 2 3 cbr 1000 ------- 2 1.0 3.0 14 18
+ 0.271429 1 2 cbr 1000 ------- 2 1.0 3.0 57 65
- 0.271429 1 2 cbr 1000 ------- 2 1.0 3.0 57 65
r 0.275905 1 2 cbr 1000 ------- 2 1.0 3.0 55 63
+ 0.275905 2 3 cbr 1000 ------- 2 1.0 3.0 55 63
+ 0.27619 1 2 cbr 1000 ------- 2 1.0 3.0 58 66
- 0.27619 1 2 cbr 1000 ------- 2 1.0 3.0 58 66
r 0.28008 2 0 ack 40 ------- 1 3.1 0.0 2 61
+ 0.28008 0 2 tcp 1040 ------- 1 0.0 3.1 5 67
- 0.28008 0 2 tcp 1040 ------- 1 0.0 3.1 5 67
+ 0.28008 0 2 tcp 1040 ------- 1 0.0 3.1 6 68
r 0.280667 1 2 cbr 1000 ------- 2 1.0 3.0 56 64
+ 0.280667 2 3 cbr 1000 ------- 2 1.0 3.0 56 64
d 0.280667 2 3 cbr 1000 ------- 2 1.0 3.0 56 64
+ 0.280952 1 2 cbr 1000 ------- 2 1.0 3.0 59 69
- 0.280952 1 2 cbr 1000 ------- 2 1.0 3.0 59 69
- 0.28424 0 2 tcp 1040 ------- 1 0.0 3.1 6 68
r 0.285429 1 2 cbr 1000 ------- 2 1.0 3.0 57 65
+ 0.285429 2 3 cbr 1000 ------- 2 1.0 3.0 57 65
d 0.285429 2 3 cbr 1000 ------- 2 1.0 3.0 57 65
+ 0.285714 1 2 cbr 1000 ------- 2 1.0 3.0 60 70
- 0.285714 1 2 cbr 1000 ------- 2 1.0 3.0 60 70
r 0.28628 2 3 cbr 1000 ------- 2 1.0 3.0 13 17
- 0.28728 2 3 cbr 1000 ------- 2 1.0 3.0 15 19
r 0.29019 1 2 cbr 1000 ------- 2 1.0 3.0 58 66
+ 0.29019 2 3 cbr 1000 ------- 2 1.0 3.0 58 66
+ 0.290476 1 2 cbr 1000 ------- 2 1.0 3.0 61 71
- 0.290476 1 2 cbr 1000 ------- 2 1.0 3.0 61 71
r 0.29424 0 2 tcp 1040 ------- 1 0.0 3.1 5 67
+ 0.29424 2 3 tcp 1040 ------- 1 0.0 3.1 5 67
d 0.29424 2 3 tcp 1040 ------- 1 0.0 3.1 5 67
r 0.294952 1 2 cbr 1000 ------- 2 1.0 3.0 59 69
+ 0.294952 2 3 cbr 1000 ------- 2 1.0 3.0 59 69
d 0.294952 2 3 cbr 1000 ------- 2 1.0 3.0 59 69
+ 0.295238 1 2 cbr 1000 ------- 2 1.0 3.0 62 72
- 0.295238 1 2 cbr 1000 ------- 2 1.0 3.0 62 72
r 0.2984 0 2 tcp 1040 ------- 1 0.0 3.1 6 68
+ 0.2984 2 3 tcp 1040 ------- 1 0.0 3.1 6 68
d 0.2984 2 3 tcp 1040 ------- 1 0.0 3.1 6 68
r 0.299714 1 2 cbr 1000 ------- 2 1.0 3.0 60 70
+ 0.299714 2 3 cbr 1000 ------- 2 1.0 3.0 60 70
d 0.299714 2 3 cbr 1000 ------- 2 1.0 3.0 60 70
+ 0.3 1 2 cbr 1000 ------- 2 1.0 3.0 63 73
- 0.3 1 2 cbr 1000 ------- 2 1.0 3.0 63 73
r 0.30228 2 3 cbr 1000 ------- 2 1.0 3.0 14 18
- 0.30328 2 3 cbr 1000 ------- 2 1.0 3.0 16 20
r 0.304476 1 2 cbr 1000 ------- 2 1.0 3.0 61 71
+ 0.304476 2 3 cbr 1000 ------- 2 1.0 3.0 61 71
+ 0.304762 1 2 cbr 1000 ------- 2 1.0 3.0 64 74
- 0.304762 1 2 cbr 1000 ------- 2 1.0 3.0 64 74
r 0.309238 1 2 cbr 1000 ------- 2 1.0 3.0 62 72
+ 0.309238 2 3 cbr 1000 ------- 2 1.0 3.0 62 72
d 0.309238 2 3 cbr 1000 ------- 2 1.0 3.0 62 72
+ 0.309524 1 2 cbr 1000 ------- 2 1.0 3.0 65 75
- 0.309524 1 2 cbr 1000 ------- 2 1.0 3.0 65 75
r 0.314 1 2 cbr 1000 ------- 2 1.0 3.0 63 73
+ 0.314 2 3 cbr 1000 ------- 2 1.0 3.0 63 73
d 0.314 2 3 cbr 1000 ------- 2 1.0 3.0 63 73
+ 0.314286 1 2 cbr 1000 ------- 2 1.0 3.0 66 76
- 0.314286 1 2 cbr 1000 ------- 2 1.0 3.0 66 76
r 0.31828 2 3 cbr 1000 ------- 2 1.0 3.0 15 19
r 0.318762 1 2 cbr 1000 ------- 2 1.0 3.0 64 74
+ 0.318762 2 3 cbr 1000 ------- 2 1.0 3.0 64 74
d 0.318762 2 3 cbr 1000 ------- 2 1.0 3.0 64 74
+ 0.319048 1 2 cbr 1000 ------- 2 1.0 3.0 67 77
- 0.319048 1 2 cbr 1000 ------- 2 1.0 3.0 67 77
- 0.31928 2 3 cbr 1000 ------- 2 1.0 3.0 17 21
r 0.323524 1 2 cbr 1000 ------- 2 1.0 3.0 65 75
+ 0.323524 2 3 cbr 1000 ------- 2 1.0 3.0 65 75
+ 0.32381 1 2 cbr 1000 ------- 2 1.0 3.0 68 78
- 0.32381 1 2 cbr 1000 ------- 2 1.0 3.0 68 78
r 0.328286 1 2 cbr 1000 ------- 2 1.0 3.0 66 76
+ 0.328286 2 3 cbr 1000 ------- 2 1.0 3.0 66 76
d 0.328286 2 3 cbr 1000 ------- 2 1.0 3.0 66 76
+ 0.328571 1 2 cbr 1000 ------- 2 1.0 3.0 69 79
- 0.328571 1 2 cbr 1000 ------- 2 1.0 3.0 69 79
r 0.333048 1 2 cbr 1000 ------- 2 1.0 3.0 67 77
+ 0.333048 2 3 cbr 1000 ------- 2 1.0 3.0 67 77
d 0.333048 2 3 cbr 1000 ------- 2 1.0 3.0 67 77
+ 0.333333 1 2 cbr 1000 ------- 2 1.0 3.0 70 80
- 0.333333 1 2 cbr 1000 ------- 2 1.0 3.0 70 80
r 0.33428 2 3 cbr 1000 ------- 2 1.0 3.0 16 20
- 0.33528 2 3 cbr 1000 ------- 2 1.0 3.0 21 25
r 0.33781 1 2 cbr 1000 ------- 2 1.0 3.0 68 78
+ 0.33781 2 3 cbr 1000 ------- 2 1.0 3.0 68 78
+ 0.338095 1 2 cbr 1000 ------- 2 1.0 3.0 71 81
- 0.338095 1 2 cbr 1000 ------- 2 1.0 3.0 71 81
r 0.342571 1 2 cbr 1000 ------- 2 1.0 3.0 69 79
+ 0.342571 2 3 cbr 1000 ------- 2 1.0 3.0 69 79
d 0.342571 2 3 cbr 1000 ------- 2 1.0 3.0 69 79
+ 0.342857 1 2 cbr 1000 ------- 2 1.0 3.0 72 82
- 0.342857 1 2 cbr 1000 ------- 2 1.0 3.0 72 82
r 0.347333 1 2 cbr 1000 ------- 2 1.0 3.0 70 80
+ 0.347333 2 3 cbr 1000 ------- 2 1.0 3.0 70 80
d 0.347333 2 3 cbr 1000 ------- 2 1.0 3.0 70 80
+ 0.347619 1 2 cbr 1000 ------- 2 1.0 3.0 73 83
- 0.347619 1 2 cbr 1000 ------- 2 1.0 3.0 73 83
r 0.35028 2 3 cbr 1000 ------- 2 1.0 3.0 17 21
- 0.35128 2 3 cbr 1000 ------- 2 1.0 3.0 24 28
r 0.352095 1 2 cbr 1000 ------- 2 1.0 3.0 71 81
+ 0.352095 2 3 cbr 1000 ------- 2 1.0 3.0 71 81
+ 0.352381 1 2 cbr 1000 ------- 2 1.0 3.0 74 84
- 0.352381 1 2 cbr 1000 ------- 2 1.0 3.0 74 84
r 0.356857 1 2 cbr 1000 ------- 2 1.0 3.0 72 82
+ 0.356857 2 3 cbr 1000 ------- 2 1.0 3.0 72 82
d 0.356857 2 3 cbr 1000 ------- 2 1.0 3.0 72 82
+ 0.357143 1 2 cbr 1000 ------- 2 1.0 3.0 75 85
- 0.357143 1 2 cbr 1000 ------- 2 1.0 3.0 75 85
r 0.361619 1 2 cbr 1000 ------- 2 1.0 3.0 73 83
+ 0.361619 2 3 cbr 1000 ------- 2 1.0 3.0 73 83
d 0.361619 2 3 cbr 1000 ------- 2 1.0 3.0 73 83
+ 0.361905 1 2 cbr 1000 ------- 2 1.0 3.0 76 86
- 0.361905 1 2 cbr 1000 ------- 2 1.0 3.0 76 86
r 0.36628 2 3 cbr 1000 ------- 2 1.0 3.0 21 25
r 0.366381 1 2 cbr 1000 ------- 2 1.0 3.0 74 84
+ 0.366381 2 3 cbr 1000 ------- 2 1.0 3.0 74 84
d 0.366381 2 3 cbr 1000 ------- 2 1.0 3.0 74 84
+ 0.366667 1 2 cbr 1000 ------- 2 1.0 3.0 77 87
- 0.366667 1 2 cbr 1000 ------- 2 1.0 3.0 77 87
- 0.36728 2 3 cbr 1000 ------- 2 1.0 3.0 27 31
r 0.371143 1 2 cbr 1000 ------- 2 1.0 3.0 75 85
+ 0.371143 2 3 cbr 1000 ------- 2 1.0 3.0 75 85
+ 0.371429 1 2 cbr 1000 ------- 2 1.0 3.0 78 88
- 0.371429 1 2 cbr 1000 ------- 2 1.0 3.0 78 88
r 0.375905 1 2 cbr 1000 ------- 2 1.0 3.0 76 86
+ 0.375905 2 3 cbr 1000 ------- 2 1.0 3.0 76 86
d 0.375905 2 3 cbr 1000 ------- 2 1.0 3.0 76 86
+ 0.37619 1 2 cbr 1000 ------- 2 1.0 3.0 79 89
- 0.37619 1 2 cbr 1000 ------- 2 1.0 3.0 79 89
r 0.380667 1 2 cbr 1000 ------- 2 1.0 3.0 77 87
+ 0.380667 2 3 cbr 1000 ------- 2 1.0 3.0 77 87
d 0.380667 2 3 cbr 1000 ------- 2 1.0 3.0 77 87
+ 0.380952 1 2 cbr 1000 ------- 2 1.0 3.0 80 90
- 0.380952 1 2 cbr 1000 ------- 2 1.0 3.0 80 90
r 0.38228 2 3 cbr 1000 ------- 2 1.0 3.0 24 28
- 0.38328 2 3 cbr 1000 ------- 2 1.0 3.0 31 35
r 0.385429 1 2 cbr 1000 ------- 2 1.0 3.0 78 88
+ 0.385429 2 3 cbr 1000 ------- 2 1.0 3.0 78 88
+ 0.385714 1 2 cbr 1000 ------- 2 1.0 3.0 81 91
- 0.385714 1 2 cbr 1000 ------- 2 1.0 3.0 81 91
r 0.39019 1 2 cbr 1000 ------- 2 1.0 3.0 79 89
+ 0.39019 2 3 cbr 1000 ------- 2 1.0 3.0 79 89
d 0.39019 2 3 cbr 1000 ------- 2 1.0 3.0 79 89
+ 0.390476 1 2 cbr 1000 ------- 2 1.0 3.0 82 92
- 0.390476 1 2 cbr 1000 ------- 2 1.0 3.0 82 92
r 0.394952 1 2 cbr 1000 ------- 2 1.0 3.0 80 90
+ 0.394952 2 3 cbr 1000 ------- 2 1.0 3.0 80 90
d 0.394952 2 3 cbr 1000 ------- 2 1.0 3.0 80 90
+ 0.395238 1 2 cbr 1000 ------- 2 1.0 3.0 83 93
- 0.395238 1 2 cbr 1000 ------- 2 1.0 3.0 83 93
r 0.39828 2 3 cbr 1000 ------- 2 1.0 3.0 27 31
- 0.39928 2 3 cbr 1000 ------- 2 1.0 3.0 34 38
r 0.399714 1 2 cbr 1000 ------- 2 1.0 3.0 81 91
+ 0.399714 2 3 cbr 1000 ------- 2 1.0 3.0 81 91
+ 0.4 1 2 cbr 1000 ------- 2 1.0 3.0 84 94
- 0.4 1 2 cbr 1000 ------- 2 1.0 3.0 84 94
r 0.404476 1 2 cbr 1000 ------- 2 1.0 3.0 82 92
+ 0.404476 2 3 cbr 1000 ------- 2 1.0 3.0 82 92
d 0.404476 2 3 cbr 1000 ------- 2 1.0 3.0 82 92
+ 0.404762 1 2 cbr 1000 ------- 2 1.0 3.0 85 95
- 0.404762 1 2 cbr 1000 ------- 2 1.0 3.0 85 95
r 0.409238 1 2 cbr 1000 ------- 2 1.0 3.0 83 93
+ 0.409238 2 3 cbr 1000 ------- 2 1.0 3.0 83 93
d 0.409238 2 3 cbr 1000 ------- 2 1.0 3.0 83 93
+ 0.409524 1 2 cbr 1000 ------- 2 1.0 3.0 86 96
- 0.409524 1 2 cbr 1000 ------- 2 1.0 3.0 86 96
r 0.414 1 2 cbr 1000 ------- 2 1.0 3.0 84 94
+ 0.414 2 3 cbr 1000 ------- 2 1.0 3.0 84 94
d 0.414 2 3 cbr 1000 ------- 2 1.0 3.0 84 94
r 0.41428 2 3 cbr 1000 ------- 2 1.0 3.0 31 35
+ 0.414286 1 2 cbr 1000 ------- 2 1.0 3.0 87 97
- 0.414286 1 2 cbr 1000 ------- 2 1.0 3.0 87 97
- 0.41528 2 3 cbr 1000 ------- 2 1.0 3.0 37 41
r 0.418762 1 2 cbr 1000 ------- 2 1.0 3.0 85 95
+ 0.418762 2 3 cbr 1000 ------- 2 1.0 3.0 85 95
+ 0.419048 1 2 cbr 1000 ------- 2 1.0 3.0 88 98
- 0.419048 1 2 cbr 1000 ------- 2 1.0 3.0 88 98
r 0.423524 1 2 cbr 1000 ------- 2 1.0 3.0 86 96
+ 0.423524 2 3 cbr 1000 ------- 2 1.0 3.0 86 96
d 0.423524 2 3 cbr 1000 ------- 2 1.0 3.0 86 96
+ 0.42381 1 2 cbr 1000 ------- 2 1.0 3.0 89 99
- 0.42381 1 2 cbr 1000 ------- 2 1.0 3.0 89 99
r 0.428286 1 2 cbr 1000 ------- 2 1.0 3.0 87 97
+ 0.428286 2 3 cbr 1000 ------- 2 1.0 3.0 87 97
d 0.428286 2 3 cbr 1000 ------- 2 1.0 3.0 87 97
+ 0.428571 1 2 cbr 1000 ------- 2 1.0 3.0 90 100
- 0.428571 1 2 cbr 1000 ------- 2 1.0 3.0 90 100
r 0.43028 2 3 cbr 1000 ------- 2 1.0 3.0 34 38
- 0.43128 2 3 cbr 1000 ------- 2 1.0 3.0 41 45
r 0.433048 1 2 cbr 1000 ------- 2 1.0 3.0 88 98
+ 0.433048 2 3 cbr 1000 ------- 2 1.0 3.0 88 98
+ 0.433333 1 2 cbr 1000 ------- 2 1.0 3.0 91 101
- 0.433333 1 2 cbr 1000 ------- 2 1.0 3.0 91 101
r 0.43781 1 2 cbr 1000 ------- 2 1.0 3.0 89 99
+ 0.43781 2 3 cbr 1000 ------- 2 1.0 3.0 89 99
d 0.43781 2 3 cbr 1000 ------- 2 1.0 3.0 89 99
+ 0.438095 1 2 cbr 1000 ------- 2 1.0 3.0 92 102
- 0.438095 1 2 cbr 1000 ------- 2 1.0 3.0 92 102
r 0.442571 1 2 cbr 1000 ------- 2 1.0 3.0 90 100
+ 0.442571 2 3 cbr 1000 ------- 2 1.0 3.0 90 100
d 0.442571 2 3 cbr 1000 ------- 2 1.0 3.0 90 100
+ 0.442857 1 2 cbr 1000 ------- 2 1.0 3.0 93 103
- 0.442857 1 2 cbr 1000 ------- 2 1.0 3.0 93 103
r 0.44628 2 3 cbr 1000 ------- 2 1.0 3.0 37 41
- 0.44728 2 3 cbr 1000 ------- 2 1.0 3.0 44 48
r 0.447333 1 2 cbr 1000 ------- 2 1.0 3.0 91 101
+ 0.447333 2 3 cbr 1000 ------- 2 1.0 3.0 91 101
+ 0.447619 1 2 cbr 1000 ------- 2 1.0 3.0 94 104
- 0.447619 1 2 cbr 1000 ------- 2 1.0 3.0 94 104
r 0.452095 1 2 cbr 1000 ------- 2 1.0 3.0 92 102
+ 0.452095 2 3 cbr 1000 ------- 2 1.0 3.0 92 102
d 0.452095 2 3 cbr 1000 ------- 2 1.0 3.0 92 102
+ 0.452381 1 2 cbr 1000 ------- 2 1.0 3.0 95 105
- 0.452381 1 2 cbr 1000 ------- 2 1.0 3.0 95 105
r 0.456857 1 2 cbr 1000 ------- 2 1.0 3.0 93 103
+ 0.456857 2 3 cbr 1000 ------- 2 1.0 3.0 93 103
d 0.456857 2 3 cbr 1000 ------- 2 1.0 3.0 93 103
+ 0.457143 1 2 cbr 1000 ------- 2 1.0 3.0 96 106
- 0.457143 1 2 cbr 1000 ------- 2 1.0 3.0 96 106
r 0.461619 1 2 cbr 1000 ------- 2 1.0 3.0 94 104
+ 0.461619 2 3 cbr 1000 ------- 2 1.0 3.0 94 104
d 0.461619 2 3 cbr 1000 ------- 2 1.0 3.0 94 104
+ 0.461905 1 2 cbr 1000 ------- 2 1.0 3.0 97 107
- 0.461905 1 2 cbr 1000 ------- 2 1.0 3.0 97 107
r 0.46228 2 3 cbr 1000 ------- 2 1.0 3.0 41 45
- 0.46328 2 3 cbr 1000 ------- 2 1.0 3.0 48 53
r 0.466381 1 2 cbr 1000 ------- 2 1.0 3.0 95 105
+ 0.466381 2 3 cbr 1000 ------- 2 1.0 3.0 95 105
+ 0.466667 1 2 cbr 1000 ------- 2 1.0 3.0 98 108
- 0.466667 1 2 cbr 1000 ------- 2 1.0 3.0 98 108
r 0.471143 1 2 cbr 1000 ------- 2 1.0 3.0 96 106
+ 0.471143 2 3 cbr 1000 ------- 2 1.0 3.0 96 106
d 0.471143 2 3 cbr 1000 ------- 2 1.0 3.0 96 106
+ 0.471429 1 2 cbr 1000 ------- 2 1.0 3.0 99 109
- 0.471429 1 2 cbr 1000 ------- 2 1.0 3.0 99 109
r 0.475905 1 2 cbr 1000 ------- 2 1.0 3.0 97 107
+ 0.475905 2 3 cbr 1000 ------- 2 1.0 3.0 97 107
d 0.475905 2 3 cbr 1000 ------- 2 1.0 3.0 97 107
+ 0.47619 1 2 cbr 1000 ------- 2 1.0 3.0 100 110
- 0.47619 1 2 cbr 1000 ------- 2 1.0 3.0 100 110
r 0.47828 2 3 cbr 1000 ------- 2 1.0 3.0 44 48
- 0.47928 2 3 cbr 1000 ------- 2 1.0 3.0 51 56
r 0.480667 1 2 cbr 1000 ------- 2 1.0 3.0 98 108
+ 0.480667 2 3 cbr 1000 ------- 2 1.0 3.0 98 108
+ 0.480952 1 2 cbr 1000 ------- 2 1.0 3.0 101 111
- 0.480952 1 2 cbr 1000 ------- 2 1.0 3.0 101 111
r 0.485429 1 2 cbr 1000 ------- 2 1.0 3.0 99 109
+ 0.485429 2 3 cbr 1000 ------- 2 1.0 3.0 99 109
d 0.485429 2 3 cbr 1000 ------- 2 1.0 3.0 99 109
+ 0.485714 1 2 cbr 1000 ------- 2 1.0 3.0 102 112
- 0.485714 1 2 cbr 1000 ------- 2 1.0 3.0 102 112
r 0.49019 1 2 cbr 1000 ------- 2 1.0 3.0 100 110
+ 0.49019 2 3 cbr 1000 ------- 2 1.0 3.0 100 110
d 0.49019 2 3 cbr 1000 ------- 2 1.0 3.0 100 110
+ 0.490476 1 2 cbr 1000 ------- 2 1.0 3.0 103 113
- 0.490476 1 2 cbr 1000 ------- 2 1.0 3.0 103 113
r 0.49428 2 3 cbr 1000 ------- 2 1.0 3.0 48 53
r 0.494952 1 2 cbr 1000 ------- 2 1.0 3.0 101 111
+ 0.494952 2 3 cbr 1000 ------- 2 1.0 3.0 101 111
d 0.494952 2 3 cbr 1000 ------- 2 1.0 3.0 101 111
+ 0.495238 1 2 cbr 1000 ------- 2 1.0 3.0 104 114
- 0.495238 1 2 cbr 1000 ------- 2 1.0 3.0 104 114
- 0.49528 2 3 cbr 1000 ------- 2 1.0 3.0 55 63
r 0.499714 1 2 cbr 1000 ------- 2 1.0 3.0 102 112
+ 0.499714 2 3 cbr 1000 ------- 2 1.0 3.0 102 112
+ 0.5 1 2 cbr 1000 ------- 2 1.0 3.0 105 115
- 0.5 1 2 cbr 1000 ------- 2 1.0 3.0 105 115
r 0.504476 1 2 cbr 1000 ------- 2 1.0 3.0 103 113
+ 0.504476 2 3 cbr 1000 ------- 2 1.0 3.0 103 113
d 0.504476 2 3 cbr 1000 ------- 2 1.0 3.0 103 113
+ 0.504762 1 2 cbr 1000 ------- 2 1.0 3.0 106 116
- 0.504762 1 2 cbr 1000 ------- 2 1.0 3.0 106 116
r 0.509238 1 2 cbr 1000 ------- 2 1.0 3.0 104 114
+ 0.509238 2 3 cbr 1000 ------- 2 1.0 3.0 104 114
d 0.509238 2 3 cbr 1000 ------- 2 1.0 3.0 104 114
+ 0.509524 1 2 cbr 1000 ------- 2 1.0 3.0 107 117
- 0.509524 1 2 cbr 1000 ------- 2 1.0 3.0 107 117
r 0.51028 2 3 cbr 1000 ------- 2 1.0 3.0 51 56
- 0.51128 2 3 cbr 1000 ------- 2 1.0 3.0 58 66
r 0.514 1 2 cbr 1000 ------- 2 1.0 3.0 105 115
+ 0.514 2 3 cbr 1000 ------- 2 1.0 3.0 105 115
+ 0.514286 1 2 cbr 1000 ------- 2 1.0 3.0 108 118
- 0.514286 1 2 cbr 1000 ------- 2 1.0 3.0 108 118
r 0.518762 1 2 cbr 1000 ------- 2 1.0 3.0 106 116
+ 0.518762 2 3 cbr 1000 ------- 2 1.0 3.0 106 116
d 0.518762 2 3 cbr 1000 ------- 2 1.0 3.0 106 116
+ 0.519048 1 2 cbr 1000 ------- 2 1.0 3.0 109 119
- 0.519048 1 2 cbr 1000 ------- 2 1.0 3.0 109 119
r 0.523524 1 2 cbr 1000 ------- 2 1.0 3.0 107 117
+ 0.523524 2 3 cbr 1000 ------- 2 1.0 3.0 107 117
d 0.523524 2 3 cbr 1000 ------- 2 1.0 3.0 107 117
+ 0.52381 1 2 cbr 1000 ------- 2 1.0 3.0 110 120
- 0.52381 1 2 cbr 1000 ------- 2 1.0 3.0 110 120
r 0.52628 2 3 cbr 1000 ------- 2 1.0 3.0 55 63
- 0.52728 2 3 cbr 1000 ------- 2 1.0 3.0 61 71
r 0.528286 1 2 cbr 1000 ------- 2 1.0 3.0 108 118
+ 0.528286 2 3 cbr 1000 ------- 2 1.0 3.0 108 118
+ 0.528571 1 2 cbr 1000 ------- 2 1.0 3.0 111 121
- 0.528571 1 2 cbr 1000 ------- 2 1.0 3.0 111 121
r 0.533048 1 2 cbr 1000 ------- 2 1.0 3.0 109 119
+ 0.533048 2 3 cbr 1000 ------- 2 1.0 3.0 109 119
d 0.533048 2 3 cbr 1000 ------- 2 1.0 3.0 109 119
+ 0.533333 1 2 cbr 1000 ------- 2 1.0 3.0 112 122
- 0.533333 1 2 cbr 1000 ------- 2 1.0 3.0 112 122
r 0.53781 1 2 cbr 1000 ------- 2 1.0 3.0 110 120
+ 0.53781 2 3 cbr 1000 ------- 2 1.0 3.0 110 120
d 0.53781 2 3 cbr 1000 ------- 2 1.0 3.0 110 120
+ 0.538095 1 2 cbr 1000 ------- 2 1.0 3.0 113 123
- 0.538095 1 2 cbr 1000 ------- 2 1.0 3.0 113 123
r 0.54228 2 3 cbr 1000 ------- 2 1.0 3.0 58 66