V -t * -v 1.0a5 -a 0
A -t * -n 1 -p 0 -o 0x7fffffff -c 30 -a 1
A -t * -h 1 -m 1073741823 -s 0
c -t * -i 1 -n Red
c -t * -i 2 -n Blue
n -t * -a 0 -s 0 -S UP -v circle -c black -i black
n -t * -a 1 -s 1 -S UP -v circle -c black -i black
n -t * -a 2 -s 2 -S UP -v circle -c black -i black
n -t * -a 3 -s 3 -S UP -v circle -c black -i black
l -t * -s 0 -d 2 -S UP -r 2000000 -D 0.01 -c black -o right-down
l -t * -s 1 -d 2 -S UP -r 2000000 -D 0.01 -c black -o right-up
l -t * -s 2 -d 3 -S UP -r 2 -D 0.014999999999999999 -c black -o right
+ -t 0 -s 1 -d 2 -p cbr -e 1000 -c 2 -i 0 -a 2 -x {1.0 3.0 0 ------- null}
- -t 0 -s 1 -d 2 -p cbr -e 1000 -c 2 -i 0 -a 2 -x {1.0 3.0 0 ------- null}
h -t 0 -s 1 -d 2 -p cbr -e 1000 -c 2 -i 0 -a 2 -x {1.0 3.0 -1 ------- null}
+ -t 0 -s 0 -d 2 -p tcp -e 40 -c 1 -i 1 -a 1 -x {0.0 3.1 0 ------- null}
- -t 0 -s 0 -d 2 -p tcp -e 40 -c 1 -i 1 -a 1 -x {0.0 3.1 0 ------- null}
h -t 0 -s 0 -d 2 -p tcp -e 40 -c 1 -i 1 -a 1 -x {0.0 3.1 -1 ------- null}
+ -t 0.00476190476190476 -s 1 -d 2 -p cbr -e 1000 -c 2 -i 2 -a 2 -x {1.0 3.0 1 ------- null}
- -t 0.00476190476190476 -s 1 -d 2 -p cbr -e 1000 -c 2 -i 2 -a 2 -x {1.0 3.0 1 ------- null}
h -t 0.00476190476190476 -s 1 -d 2 -p cbr -e 1000 -c 2 -i 2 -a 2 -x {1.0 3.0 -1 ------- null}
+ -t 0.00952380952380952 -s 1 -d 2 -p cbr -e 1000 -c 2 -i 3 -a 2 -x {1.0 3.0 2 ------- null}
- -t 0.00952380952380952 -s 1 -d 2 -p cbr -e 1000 -c 2 -i 3 -a 2 -x {1.0 3.0 2 ------- null}
h -t 0.00952380952380952 -s 1 -d 2 -p cbr -e 1000 -c 2 -i 3 -a 2 -x {1.0 3.0 -1 ------- null}
r -t 0.01016 -s 0 -d 2 -p tcp -e 40 -c 1 -i 1 -a 1 -x {0.0 3.1 0 ------- null}
+ -t 0.01016 -s 2 -d 3 -p tcp -e 40 -c 1 -i 1 -a 1 -x {0.0 3.1 0 ------- null}
- -t 0.01016 -s 2 -d 3 -p tcp -e 40 -c 1 -i 1 -a 1 -x {0.0 3.1 0 ------- null}
h -t 0.01016 -s 2 -d 3 -p tcp -e 40 -c 1 -i 1 -a 1 -x {0.0 3.1 -1 ------- null}
r -t 0.014 -s 1 -d 2 -p cbr -e 1000 -c 2 -i 0 -a 2 -x {1.0 3.0 0 ------- null}
+ -t 0.014 -s 2 -d 3 -p cbr -e 1000 -c 2 -i 0 -a 2 -x {1.0 3.0 0 ------- null}
+ -t 0.0142857142857143 -s 1 -d 2 -p cbr -e 1000 -c 2 -i 4 -a 2 -x {1.0 3.0 3 ------- null}
- -t 0.0142857142857143 -s 1 -d 2 -p cbr -e 1000 -c 2 -i 4 -a 2 -x {1.0 3.0 3 ------- null}
h -t 0.0142857142857143 -s 1 -d 2 -p cbr -e 1000 -c 2 -i 4 -a 2 -x {1.0 3.0 -1 ------- null}
r -t 0.0187619047619048 -s 1 -d 2 -p cbr -e 1000 -c 2 -i 2 -a 2 -x {1.0 3.0 1 ------- null}
+ -t 0.0187619047619048 -s 2 -d 3 -p cbr -e 1000 -c 2 -i 2 -a 2 -x {1.0 3.0 1 ------- null}
+ -t 0.019047619047619 -s 1 -d 2 -p cbr -e 1000 -c 2 -i 5 -a 2 -x {1.0 3.0 4 ------- null}
- -t 0.019047619047619 -s 1 -d 2 -p cbr -e 1000 -c 2 -i 5 -a 2 -x {1.0 3.0 4 ------- null}
h -t 0.019047619047619 -s 1 -d 2 -p cbr -e 1000 -c 2 -i 5 -a 2 -x {1.0 3.0 -1 ------- null}
r -t 0.0235238095238095 -s 1 -d 2 -p cbr -e 1000 -c 2 -i 3 -a 2 -x {1.0 3.0 2 ------- null}
+ -t 0.0235238095238095 -s 2 -d 3 -p cbr -e 1000 -c 2 -i 3 -a 2 -x {1.0 3.0 2 ------- null}
+ -t 0.0238095238095238 -s 1 -d 2 -p cbr -e 1000 -c 2 -i 6 -a 2 -x {1.0 3.0 5 ------- null}
- -t 0.0238095238095238 -s 1 -d 2 -p cbr -e 1000 -c 2 -i 6 -a 2 -x {1.0 3.0 5 ------- null}
h -t 0.0238095238095238 -s 1 -d 2 -p cbr -e 1000 -c 2 -i 6 -a 2 -x {1.0 3.0 -1 ------- null}
r -t 0.0282857142857143 -s 1 -d 2 -p cbr -e 1000 -c 2 -i 4 -a 2 -x {1.0 3.0 3 ------- null}
+ -t 0.0282857142857143 -s 2 -d 3 -p cbr -e 1000 -c 2 -i 4 -a 2 -x {1.0 3.0 3 ------- null}
+ -t 0.0285714285714286 -s 1 -d 2 -p cbr -e 1000 -c 2 -i 7 -a 2 -x {1.0 3.0 6 ------- null}
- -t 0.0285714285714286 -s 1 -d 2 -p cbr -e 1000 -c 2 -i 7 -a 2 -x {1.0 3.0 6 ------- null}
h -t 0.0285714285714286 -s 1 -d 2 -p cbr -e 1000 -c 2 -i 7 -a 2 -x {1.0 3.0 -1 ------- null}
r -t 0.033047619047619 -s 1 -d 2 -p cbr -e 1000 -c 2 -i 5 -a 2 -x {1.0 3.0 4 ------- null}
+ -t 0.033047619047619 -s 2 -d 3 -p cbr -e 1000 -c 2 -i 5 -a 2 -x {1.0 3.0 4 ------- null}
+ -t 0.0333333333333333 -s 1 -d 2 -p cbr -e 1000 -c 2 -i 8 -a 2 -x {1.0 3.0 7 ------- null}
- -t 0.0333333333333333 -s 1 -d 2 -p cbr -e 1000 -c 2 -i 8 -a 2 -x {1.0 3.0 7 ------- null}
h -t 0.0333333333333333 -s 1 -d 2 -p cbr -e 1000 -c 2 -i 8 -a 2 -x {1.0 3.0 -1 ------- null}
r -t 0.0378095238095238 -s 1 -d 2 -p cbr -e 1000 -c 2 -i 6 -a 2 -x {1.0 3.0 5 ------- null}
+ -t 0.0378095238095238 -s 2 -d 3 -p cbr -e 1000 -c 2 -i 6 -a 2 -x {1.0 3.0 5 ------- null}
+ -t 0.0380952380952381 -s 1 -d 2 -p cbr -e 1000 -c 2 -i 9 -a 2 -x {1.0 3.0 8 ------- null}
- -t 0.0380952380952381 -s 1 -d 2 -p cbr -e 1000 -c 2 -i 9 -a 2 -x {1.0 3.0 8 ------- null}
h -t 0.0380952380952381 -s 1 -d 2 -p cbr -e 1000 -c 2 -i 9 -a 2 -x {1.0 3.0 -1 ------- null}
r -t 0.0425714285714286 -s 1 -d 2 -p cbr -e 1000 -c 2 -i 7 -a 2 -x {1.0 3.0 6 ------- null}
+ -t 0.0425714285714286 -s 2 -d 3 -p cbr -e 1000 -c 2 -i 7 -a 2 -x {1.0 3.0 6 ------- null}
+ -t 0.0428571428571429 -s 1 -d 2 -p cbr -e 1000 -c 2 -i 10 -a 2 -x {1.0 3.0 9 ------- null}
- -t 0.0428571428571429 -s 1 -d 2 -p cbr -e 1000 -c 2 -i 10 -a 2 -x {1.0 3.0 9 ------- null}
h -t 0.0428571428571429 -s 1 -d 2 -p cbr -e 1000 -c 2 -i 10 -a 2 -x {1.0 3.0 -1 ------- null}
r -t 0.0473333333333333 -s 1 -d 2 -p cbr -e 1000 -c 2 -i 8 -a 2 -x {1.0 3.0 7 ------- null}
+ -t 0.0473333333333333 -s 2 -d 3 -p cbr -e 1000 -c 2 -i 8 -a 2 -x {1.0 3.0 7 ------- null}
+ -t 0.0476190476190476 -s 1 -d 2 -p cbr -e 1000 -c 2 -i 11 -a 2 -x {1.0 3.0 10 ------- null}
- -t 0.0476190476190476 -s 1 -d 2 -p cbr -e 1000 -c 2 -i 11 -a 2 -x {1.0 3.0 10 ------- null}
h -t 0.0476190476190476 -s 1 -d 2 -p cbr -e 1000 -c 2 -i 11 -a 2 -x {1.0 3.0 -1 ------- null}
r -t 0.0520952380952381 -s 1 -d 2 -p cbr -e 1000 -c 2 -i 9 -a 2 -x {1.0 3.0 8 ------- null}
+ -t 0.0520952380952381 -s 2 -d 3 -p cbr -e 1000 -c 2 -i 9 -a 2 -x {1.0 3.0 8 ------- null}
+ -t 0.0523809523809524 -s 1 -d 2 -p cbr -e 1000 -c 2 -i 12 -a 2 -x {1.0 3.0 11 ------- null}
- -t 0.0523809523809524 -s 1 -d 2 -p cbr -e 1000 -c 2 -i 12 -a 2 -x {1.0 3.0 11 ------- null}
h -t 0.0523809523809524 -s 1 -d 2 -p cbr -e 1000 -c 2 -i 12 -a 2 -x {1.0 3.0 -1 ------- null}
r -t 0.0568571428571429 -s 1 -d 2 -p cbr -e 1000 -c 2 -i 10 -a 2 -x {1.0 3.0 9 ------- null}
+ -t 0.0568571428571429 -s 2 -d 3 -p cbr -e 1000 -c 2 -i 10 -a 2 -x {1.0 3.0 9 ------- null}
+ -t 0.0571428571428571 -s 1 -d 2 -p cbr -e 1000 -c 2 -i 13 -a 2 -x {1.0 3.0 12 ------- null}
- -t 0.0571428571428571 -s 1 -d 2 -p cbr -e 1000 -c 2 -i 13 -a 2 -x {1.0 3.0 12 ------- null}
h -t 0.0571428571428571 -s 1 -d 2 -p cbr -e 1000 -c 2 -i 13 -a 2 -x {1.0 3.0 -1 ------- null}
r -t 0.0616190476190476 -s 1 -d 2 -p cbr -e 1000 -c 2 -i 11 -a 2 -x {1.0 3.0 10 ------- null}
+ -t 0.0616190476190476 -s 2 -d 3 -p cbr -e 1000 -c 2 -i 11 -a 2 -x {1.0 3.0 10 ------- null}
+ -t 0.0619047619047619 -s 1 -d 2 -p cbr -e 1000 -c 2 -i 14 -a 2 -x {1.0 3.0 13 ------- null}
- -t 0.0619047619047619 -s 1 -d 2 -p cbr -e 1000 -c 2 -i 14 -a 2 -x {1.0 3.0 13 ------- null}
h -t 0.0619047619047619 -s 1 -d 2 -p cbr -e 1000 -c 2 -i 14 -a 2 -x {1.0 3.0 -1 ------- null}
r -t 0.0663809523809524 -s 1 -d 2 -p cbr -e 1000 -c 2 -i 12 -a 2 -x {1.0 3.0 11 ------- null}
+ -t 0.0663809523809524 -s 2 -d 3 -p cbr -e 1000 -c 2 -i 12 -a 2 -x {1.0 3.0 11 ------- null}
+ -t 0.0666666666666667 -s 1 -d 2 -p cbr -e 1000 -c 2 -i 15 -a 2 -x {1.0 3.0 14 ------- null}
- -t 0.0666666666666667 -s 1 -d 2 -p cbr -e 1000 -c 2 -i 15 -a 2 -x {1.0 3.0 14 ------- null}
h -t 0.0666666666666667 -s 1 -d 2 -p cbr -e 1000 -c 2 -i 15 -a 2 -x {1.0 3.0 -1 ------- null}
r -t 0.0711428571428571 -s 1 -d 2 -p cbr -e 1000 -c 2 -i 13 -a 2 -x {1.0 3.0 12 ------- null}
+ -t 0.0711428571428571 -s 2 -d 3 -p cbr -e 1000 -c 2 -i 13 -a 2 -x {1.0 3.0 12 ------- null}
+ -t 0.0714285714285714 -s 1 -d 2 -p cbr -e 1000 -c 2 -i 16 -a 2 -x {1.0 3.0 15 ------- null}
- -t 0.0714285714285714 -s 1 -d 2 -p cbr -e 1000 -c 2 -i 16 -a 2 -x {1.0 3.0 15 ------- null}
h -t 0.0714285714285714 -s 1 -d 2 -p cbr -e 1000 -c 2 -i 16 -a 2 -x {1.0 3.0 -1 ------- null}
r -t 0.0759047619047619 -s 1 -d 2 -p cbr -e 1000 -c 2 -i 14 -a 2 -x {1.0 3.0 13 ------- null}
+ -t 0.0759047619047619 -s 2 -d 3 -p cbr -e 1000 -c 2 -i 14 -a 2 -x {1.0 3.0 13 ------- null}
+ -t 0.0761904761904762 -s 1 -d 2 -p cbr -e 1000 -c 2 -i 17 -a 2 -x {1.0 3.0 16 ------- null}
- -t 0.0761904761904762 -s 1 -d 2 -p cbr -e 1000 -c 2 -i 17 -a 2 -x {1.0 3.0 16 ------- null}
h -t 0.0761904761904762 -s 1 -d 2 -p cbr -e 1000 -c 2 -i 17 -a 2 -x {1.0 3.0 -1 ------- null}
r -t 0.0806666666666667 -s 1 -d 2 -p cbr -e 1000 -c 2 -i 15 -a 2 -x {1.0 3.0 14 ------- null}
+ -t 0.0806666666666667 -s 2 -d 3 -p cbr -e 1000 -c 2 -i 15 -a 2 -x {1.0 3.0 14 ------- null}
d -t 0.0806666666666667 -s 2 -d 3 -p cbr -e 1000 -c 2 -i 15 -a 2 -x {1.0 3.0 14 ------- null}
+ -t 0.0809523809523809 -s 1 -d 2 -p cbr -e 1000 -c 2 -i 18 -a 2 -x {1.0 3.0 17 ------- null}
- -t 0.0809523809523809 -s 1 -d 2 -p cbr -e 1000 -c 2 -i 18 -a 2 -x {1.0 3.0 17 ------- null}
h -t 0.0809523809523809 -s 1 -d 2 -p cbr -e 1000 -c 2 -i 18 -a 2 -x {1.0 3.0 -1 ------- null}
r -t 0.0854285714285714 -s 1 -d 2 -p cbr -e 1000 -c 2 -i 16 -a 2 -x {1.0 3.0 15 ------- null}
+ -t 0.0854285714285714 -s 2 -d 3 -p cbr -e 1000 -c 2 -i 16 -a 2 -x {1.0 3.0 15 ------- null}
d -t 0.0854285714285714 -s 2 -d 3 -p cbr -e 1000 -c 2 -i 16 -a 2 -x {1.0 3.0 15 ------- null}
+ -t 0.0857142857142857 -s 1 -d 2 -p cbr -e 1000 -c 2 -i 19 -a 2 -x {1.0 3.0 18 ------- null}
- -t 0.0857142857142857 -s 1 -d 2 -p cbr -e 1000 -c 2 -i 19 -a 2 -x {1.0 3.0 18 ------- null}
h -t 0.0857142857142857 -s 1 -d 2 -p cbr -e 1000 -c 2 -i 19 -a 2 -x {1.0 3.0 -1 ------- null}
r -t 0.0901904761904762 -s 1 -d 2 -p cbr -e 1000 -c 2 -i 17 -a 2 -x {1.0 3.0 16 ------- null}
+ -t 0.0901904761904762 -s 2 -d 3 -p cbr -e 1000 -c 2 -i 17 -a 2 -x {1.0 3.0 16 ------- null}
d -t 0.0901904761904762 -s 2 -d 3 -p cbr -e 1000 -c 2 -i 17 -a 2 -x {1.0 3.0 16 ------- null}
+ -t 0.0904761904761904 -s 1 -d 2 -p cbr -e 1000 -c 2 -i 20 -a 2 -x {1.0 3.0 19 ------- null}
- -t 0.0904761904761904 -s 1 -d 2 -p cbr -e 1000 -c 2 -i 20 -a 2 -x {1.0 3.0 19 ------- null}
h -t 0.0904761904761904 -s 1 -d 2 -p cbr -e 1000 -c 2 -i 20 -a 2 -x {1.0 3.0 -1 ------- null}
r -t 0.0949523809523809 -s 1 -d 2 -p cbr -e 1000 -c 2 -i 18 -a 2 -x {1.0 3.0 17 ------- null}
+ -t 0.0949523809523809 -s 2 -d 3 -p cbr -e 1000 -c 2 -i 18 -a 2 -x {1.0 3.0 17 ------- null}
d -t 0.0949523809523809 -s 2 -d 3 -p cbr -e 1000 -c 2 -i 18 -a 2 -x {1.0 3.0 17 ------- null}
+ -t 0.0952380952380952 -s 1 -d 2 -p cbr -e 1000 -c 2 -i 21 -a 2 -x {1.0 3.0 20 ------- null}
- -t 0.0952380952380952 -s 1 -d 2 -p cbr -e 1000 -c 2 -i 21 -a 2 -x {1.0 3.0 20 ------- null}
h -t 0.0952380952380952 -s 1 -d 2 -p cbr -e 1000 -c 2 -i 21 -a 2 -x {1.0 3.0 -1 ------- null}
r -t 0.0997142857142857 -s 1 -d 2 -p cbr -e 1000 -c 2 -i 19 -a 2 -x {1.0 3.0 18 ------- null}
+ -t 0.0997142857142857 -s 2 -d 3 -p cbr -e 1000 -c 2 -i 19 -a 2 -x {1.0 3.0 18 ------- null}
d -t 0.0997142857142857 -s 2 -d 3 -p cbr -e 1000 -c 2 -i 19 -a 2 -x {1.0 3.0 18 ------- null}
+ -t 0.1 -s 1 -d 2 -p cbr -e 1000 -c 2 -i 22 -a 2 -x {1.0 3.0 21 ------- null}
- -t 0.1 -s 1 -d 2 -p cbr -e 1000 -c 2 -i 22 -a 2 -x {1.0 3.0 21 ------- null}
h -t 0.1 -s 1 -d 2 -p cbr -e 1000 -c 2 -i 22 -a 2 -x {1.0 3.0 -1 ------- null}
r -t 0.10447619047619 -s 1 -d 2 -p cbr -e 1000 -c 2 -i 20 -a 2 -x {1.0 3.0 19 ------- null}
+ -t 0.10447619047619 -s 2 -d 3 -p cbr -e 1000 -c 2 -i 20 -a 2 -x {1.0 3.0 19 ------- null}
d -t 0.10447619047619 -s 2 -d 3 -p cbr -e 1000 -c 2 -i 20 -a 2 -x {1.0 3.0 19 ------- null}
+ -t 0.104761904761905 -s 1 -d 2 -p cbr -e 1000 -c 2 -i 23 -a 2 -x {1.0 3.0 22 ------- null}
- -t 0.104761904761905 -s 1 -d 2 -p cbr -e 1000 -c 2 -i 23 -a 2 -x {1.0 3.0 22 ------- null}
h -t 0.104761904761905 -s 1 -d 2 -p cbr -e 1000 -c 2 -i 23 -a 2 -x {1.0 3.0 -1 ------- null}
r -t 0.109238095238095 -s 1 -d 2 -p cbr -e 1000 -c 2 -i 21 -a 2 -x {1.0 3.0 20 ------- null}
+ -t 0.109238095238095 -s 2 -d 3 -p cbr -e 1000 -c 2 -i 21 -a 2 -x {1.0 3.0 20 ------- null}
d -t 0.109238095238095 -s 2 -d 3 -p cbr -e 1000 -c 2 -i 21 -a 2 -x {1.0 3.0 20 ------- null}
+ -t 0.109523809523809 -s 1 -d 2 -p cbr -e 1000 -c 2 -i 24 -a 2 -x {1.0 3.0 23 ------- null}
- -t 0.109523809523809 -s 1 -d 2 -p cbr -e 1000 -c 2 -i 24 -a 2 -x {1.0 3.0 23 ------- null}
h -t 0.109523809523809 -s 1 -d 2 -p cbr -e 1000 -c 2 -i 24 -a 2 -x {1.0 3.0 -1 ------- null}
r -t 0.114 -s 1 -d 2 -p cbr -e 1000 -c 2 -i 22 -a 2 -x {1.0 3.0 21 ------- null}
+ -t 0.114 -s 2 -d 3 -p cbr -e 1000 -c 2 -i 22 -a 2 -x {1.0 3.0 21 ------- null}
d -t 0.114 -s 2 -d 3 -p cbr -e 1000 -c 2 -i 22 -a 2 -x {1.0 3.0 21 ------- null}
+ -t 0.114285714285714 -s 1 -d 2 -p cbr -e 1000 -c 2 -i 25 -a 2 -x {1.0 3.0 24 ------- null}
- -t 0.114285714285714 -s 1 -d 2 -p cbr -e 1000 -c 2 -i 25 -a 2 -x {1.0 3.0 24 ------- null}
h -t 0.114285714285714 -s 1 -d 2 -p cbr -e 1000 -c 2 -i 25 -a 2 -x {1.0 3.0 -1 ------- null}
r -t 0.118761904761905 -s 1 -d 2 -p cbr -e 1000 -c 2 -i 23 -a 2 -x {1.0 3.0 22 ------- null}
+ -t 0.118761904761905 -s 2 -d 3 -p cbr -e 1000 -c 2 -i 23 -a 2 -x {1.0 3.0 22 ------- null}
d -t 0.118761904761905 -s 2 -d 3 -p cbr -e 1000 -c 2 -i 23 -a 2 -x {1.0 3.0 22 ------- null}
+ -t 0.119047619047619 -s 1 -d 2 -p cbr -e 1000 -c 2 -i 26 -a 2 -x {1.0 3.0 25 ------- null}
- -t 0.119047619047619 -s 1 -d 2 -p cbr -e 1000 -c 2 -i 26 -a 2 -x {1.0 3.0 25 ------- null}
h -t 0.119047619047619 -s 1 -d 2 -p cbr -e 1000 -c 2 -i 26 -a 2 -x {1.0 3.0 -1 ------- null}
r -t 0.123523809523809 -s 1 -d 2 -p cbr -e 1000 -c 2 -i 24 -a 2 -x {1.0 3.0 23 ------- null}
+ -t 0.123523809523809 -s 2 -d 3 -p cbr -e 1000 -c 2 -i 24 -a 2 -x {1.0 3.0 23 ------- null}
d -t 0.123523809523809 -s 2 -d 3 -p cbr -e 1000 -c 2 -i 24 -a 2 -x {1.0 3.0 23 ------- null}
+ -t 0.123809523809524 -s 1 -d 2 -p cbr -e 1000 -c 2 -i 27 -a 2 -x {1.0 3.0 26 ------- null}
- -t 0.123809523809524 -s 1 -d 2 -p cbr -e 1000 -c 2 -i 27 -a 2 -x {1.0 3.0 26 ------- null}
h -t 0.123809523809524 -s 1 -d 2 -p cbr -e 1000 -c 2 -i 27 -a 2 -x {1.0 3.0 -1 ------- null}
r -t 0.128285714285714 -s 1 -d 2 -p cbr -e 1000 -c 2 -i 25 -a 2 -x {1.0 3.0 24 ------- null}
+ -t 0.128285714285714 -s 2 -d 3 -p cbr -e 1000 -c 2 -i 25 -a 2 -x {1.0 3.0 24 ------- null}
d -t 0.128285714285714 -s 2 -d 3 -p cbr -e 1000 -c 2 -i 25 -a 2 -x {1.0 3.0 24 ------- null}
+ -t 0.128571428571429 -s 1 -d 2 -p cbr -e 1000 -c 2 -i 28 -a 2 -x {1.0 3.0 27 ------- null}
- -t 0.128571428571429 -s 1 -d 2 -p cbr -e 1000 -c 2 -i 28 -a 2 -x {1.0 3.0 27 ------- null}
h -t 0.128571428571429 -s 1 -d 2 -p cbr -e 1000 -c 2 -i 28 -a 2 -x {1.0 3.0 -1 ------- null}
r -t 0.133047619047619 -s 1 -d 2 -p cbr -e 1000 -c 2 -i 26 -a 2 -x {1.0 3.0 25 ------- null}
+ -t 0.133047619047619 -s 2 -d 3 -p cbr -e 1000 -c 2 -i 26 -a 2 -x {1.0 3.0 25 ------- null}
d -t 0.133047619047619 -s 2 -d 3 -p cbr -e 1000 -c 2 -i 26 -a 2 -x {1.0 3.0 25 ------- null}
+ -t 0.133333333333333 -s 1 -d 2 -p cbr -e 1000 -c 2 -i 29 -a 2 -x {1.0 3.0 28 ------- null}
- -t 0.133333333333333 -s 1 -d 2 -p cbr -e 1000 -c 2 -i 29 -a 2 -x {1.0 3.0 28 ------- null}
h -t 0.133333333333333 -s 1 -d 2 -p cbr -e 1000 -c 2 -i 29 -a 2 -x {1.0 3.0 -1 ------- null}
r -t 0.137809523809524 -s 1 -d 2 -p cbr -e 1000 -c 2 -i 27 -a 2 -x {1.0 3.0 26 ------- null}
+ -t 0.137809523809524 -s 2 -d 3 -p cbr -e 1000 -c 2 -i 27 -a 2 -x {1.0 3.0 26 ------- null}
d -t 0.137809523809524 -s 2 -d 3 -p cbr -e 1000 -c 2 -i 27 -a 2 -x {1.0 3.0 26 ------- null}
+ -t 0.138095238095238 -s 1 -d 2 -p cbr -e 1000 -c 2 -i 30 -a 2 -x {1.0 3.0 29 ------- null}
- -t 0.138095238095238 -s 1 -d 2 -p cbr -e 1000 -c 2 -i 30 -a 2 -x {1.0 3.0 29 ------- null}
h -t 0.138095238095238 -s 1 -d 2 -p cbr -e 1000 -c 2 -i 30 -a 2 -x {1.0 3.0 -1 ------- null}
r -t 0.142571428571429 -s 1 -d 2 -p cbr -e 1000 -c 2 -i 28 -a 2 -x {1.0 3.0 27 ------- null}
+ -t 0.142571428571429 -s 2 -d 3 -p cbr -e 1000 -c 2 -i 28 -a 2 -x {1.0 3.0 27 ------- null}
d -t 0.142571428571429 -s 2 -d 3 -p cbr -e 1000 -c 2 -i 28 -a 2 -x {1.0 3.0 27 ------- null}
+ -t 0.142857142857143 -s 1 -d 2 -p cbr -e 1000 -c 2 -i 31 -a 2 -x {1.0 3.0 30 ------- null}
- -t 0.142857142857143 -s 1 -d 2 -p cbr -e 1000 -c 2 -i 31 -a 2 -x {1.0 3.0 30 ------- null}
h -t 0.142857142857143 -s 1 -d 2 -p cbr -e 1000 -c 2 -i 31 -a 2 -x {1.0 3.0 -1 ------- null}
r -t 0.147333333333333 -s 1 -d 2 -p cbr -e 1000 -c 2 -i 29 -a 2 -x {1.0 3.0 28 ------- null}
+ -t 0.147333333333333 -s 2 -d 3 -p cbr -e 1000 -c 2 -i 29 -a 2 -x {1.0 3.0 28 ------- null}
d -t 0.147333333333333 -s 2 -d 3 -p cbr -e 1000 -c 2 -i 29 -a 2 -x {1.0 3.0 28 ------- null}
+ -t 0.147619047619048 -s 1 -d 2 -p cbr -e 1000 -c 2 -i 32 -a 2 -x {1.0 3.0 31 ------- null}
- -t 0.147619047619048 -s 1 -d 2 -p cbr -e 1000 -c 2 -i 32 -a 2 -x {1.0 3.0 31 ------- null}
h -t 0.147619047619048 -s 1 -d 2 -p cbr -e 1000 -c 2 -i 32 -a 2 -x {1.0 3.0 -1 ------- null}
r -t 0.152095238095238 -s 1 -d 2 -p cbr -e 1000 -c 2 -i 30 -a 2 -x {1.0 3.0 29 ------- null}
+ -t 0.152095238095238 -s 2 -d 3 -p cbr -e 1000 -c 2 -i 30 -a 2 -x {1.0 3.0 29 ------- null}
d -t 0.152095238095238 -s 2 -d 3 -p cbr -e 1000 -c 2 -i 30 -a 2 -x {1.0 3.0 29 ------- null}
+ -t 0.152380952380952 -s 1 -d 2 -p cbr -e 1000 -c 2 -i 33 -a 2 -x {1.0 3.0 32 ------- null}
- -t 0.152380952380952 -s 1 -d 2 -p cbr -e 1000 -c 2 -i 33 -a 2 -x {1.0 3.0 32 ------- null}
h -t 0.152380952380952 -s 1 -d 2 -p cbr -e 1000 -c 2 -i 33 -a 2 -x {1.0 3.0 -1 ------- null}
r -t 0.156857142857143 -s 1 -d 2 -p cbr -e 1000 -c 2 -i 31 -a 2 -x {1.0 3.0 30 ------- null}
+ -t 0.156857142857143 -s 2 -d 3 -p cbr -e 1000 -c 2 -i 31 -a 2 -x {1.0 3.0 30 ------- null}
d -t 0.156857142857143 -s 2 -d 3 -p cbr -e 1000 -c 2 -i 31 -a 2 -x {1.0 3.0 30 ------- null}
+ -t 0.157142857142857 -s 1 -d 2 -p cbr -e 1000 -c 2 -i 34 -a 2 -x {1.0 3.0 33 ------- null}
- -t 0.157142857142857 -s 1 -d 2 -p cbr -e 1000 -c 2 -i 34 -a 2 -x {1.0 3.0 33 ------- null}
h -t 0.157142857142857 -s 1 -d 2 -p cbr -e 1000 -c 2 -i 34 -a 2 -x {1.0 3.0 -1 ------- null}
r -t 0.161619047619048 -s 1 -d 2 -p cbr -e 1000 -c 2 -i 32 -a 2 -x {1.0 3.0 31 ------- null}
+ -t 0.161619047619048 -s 2 -d 3 -p cbr -e 1000 -c 2 -i 32 -a 2 -x {1.0 3.0 31 ------- null}
d -t 0.161619047619048 -s 2 -d 3 -p cbr -e 1000 -c 2 -i 32 -a 2 -x {1.0 3.0 31 ------- null}
+ -t 0.161904761904762 -s 1 -d 2 -p cbr -e 1000 -c 2 -i 35 -a 2 -x {1.0 3.0 34 ------- null}
- -t 0.161904761904762 -s 1 -d 2 -p cbr -e 1000 -c 2 -i 35 -a 2 -x {1.0 3.0 34 ------- null}
h -t 0.161904761904762 -s 1 -d 2 -p cbr -e 1000 -c 2 -i 35 -a 2 -x {1.0 3.0 -1 ------- null}
r -t 0.166380952380952 -s 1 -d 2 -p cbr -e 1000 -c 2 -i 33 -a 2 -x {1.0 3.0 32 ------- null}
+ -t 0.166380952380952 -s 2 -d 3 -p cbr -e 1000 -c 2 -i 33 -a 2 -x {1.0 3.0 32 ------- null}
d -t 0.166380952380952 -s 2 -d 3 -p cbr -e 1000 -c 2 -i 33 -a 2 -x {1.0 3.0 32 ------- null}
+ -t 0.166666666666667 -s 1 -d 2 -p cbr -e 1000 -c 2 -i 36 -a 2 -x {1.0 3.0 35 ------- null}
- -t 0.166666666666667 -s 1 -d 2 -p cbr -e 1000 -c 2 -i 36 -a 2 -x {1.0 3.0 35 ------- null}
h -t 0.166666666666667 -s 1 -d 2 -p cbr -e 1000 -c 2 -i 36 -a 2 -x {1.0 3.0 -1 ------- null}
r -t 0.171142857142857 -s 1 -d 2 -p cbr -e 1000 -c 2 -i 34 -a 2 -x {1.0 3.0 33 ------- null}
+ -t 0.171142857142857 -s 2 -d 3 -p cbr -e 1000 -c 2 -i 34 -a 2 -x {1.0 3.0 33 ------- null}
d -t 0.171142857142857 -s 2 -d 3 -p cbr -e 1000 -c 2 -i 34 -a 2 -x {1.0 3.0 33 ------- null}
+ -t 0.171428571428571 -s 1 -d 2 -p cbr -e 1000 -c 2 -i 37 -a 2 -x {1.0 3.0 36 ------- null}
- -t 0.171428571428571 -s 1 -d 2 -p cbr -e 1000 -c 2 -i 37 -a 2 -x {1.0 3.0 36 ------- null}
h -t 0.171428571428571 -s 1 -d 2 -p cbr -e 1000 -c 2 -i 37 -a 2 -x {1.0 3.0 -1 ------- null}
r -t 0.175904761904762 -s 1 -d 2 -p cbr -e 1000 -c 2 -i 35 -a 2 -x {1.0 3.0 34 ------- null}
+ -t 0.175904761904762 -s 2 -d 3 -p cbr -e 1000 -c 2 -i 35 -a 2 -x {1.0 3.0 34 ------- null}
d -t 0.175904761904762 -s 2 -d 3 -p cbr -e 1000 -c 2 -i 35 -a 2 -x {1.0 3.0 34 ------- null}
+ -t 0.176190476190476 -s 1 -d 2 -p cbr -e 1000 -c 2 -i 38 -a 2 -x {1.0 3.0 37 ------- null}
- -t 0.176190476190476 -s 1 -d 2 -p cbr -e 1000 -c 2 -i 38 -a 2 -x {1.0 3.0 37 ------- null}
h -t 0.176190476190476 -s 1 -d 2 -p cbr -e 1000 -c 2 -i 38 -a 2 -x {1.0 3.0 -1 ------- null}
r -t 0.180666666666667 -s 1 -d 2 -p cbr -e 1000 -c 2 -i 36 -a 2 -x {1.0 3.0 35 ------- null}
+ -t 0.180666666666667 -s 2 -d 3 -p cbr -e 1000 -c 2 -i 36 -a 2 -x {1.0 3.0 35 ------- null}
d -t 0.180666666666667 -s 2 -d 3 -p cbr -e 1000 -c 2 -i 36 -a 2 -x {1.0 3.0 35 ------- null}
+ -t 0.180952380952381 -s 1 -d 2 -p cbr -e 1000 -c 2 -i 39 -a 2 -x {1.0 3.0 38 ------- null}
- -t 0.180952380952381 -s 1 -d 2 -p cbr -e 1000 -c 2 -i 39 -a 2 -x {1.0 3.0 38 ------- null}
h -t 0.180952380952381 -s 1 -d 2 -p cbr -e 1000 -c 2 -i 39 -a 2 -x {1.0 3.0 -1 ------- null}
r -t 0.185428571428571 -s 1 -d 2 -p cbr -e 1000 -c 2 -i 37 -a 2 -x {1.0 3.0 36 ------- null}
+ -t 0.185428571428571 -s 2 -d 3 -p cbr -e 1000 -c 2 -i 37 -a 2 -x {1.0 3.0 36 ------- null}
d -t 0.185428571428571 -s 2 -d 3 -p cbr -e 1000 -c 2 -i 37 -a 2 -x {1.0 3.0 36 ------- null}
+ -t 0.185714285714286 -s 1 -d 2 -p cbr -e 1000 -c 2 -i 40 -a 2 -x {1.0 3.0 39 ------- null}
- -t 0.185714285714286 -s 1 -d 2 -p cbr -e 1000 -c 2 -i 40 -a 2 -x {1.0 3.0 39 ------- null}
h -t 0.185714285714286 -s 1 -d 2 -p cbr -e 1000 -c 2 -i 40 -a 2 -x {1.0 3.0 -1 ------- null}
r -t 0.190190476190476 -s 1 -d 2 -p cbr -e 1000 -c 2 -i 38 -a 2 -x {1.0 3.0 37 ------- null}
+ -t 0.190190476190476 -s 2 -d 3 -p cbr -e 1000 -c 2 -i 38 -a 2 -x {1.0 3.0 37 ------- null}
d -t 0.190190476190476 -s 2 -d 3 -p cbr -e 1000 -c 2 -i 38 -a 2 -x {1.0 3.0 37 ------- null}
+ -t 0.190476190476191 -s 1 -d 2 -p cbr -e 1000 -c 2 -i 41 -a 2 -x {1.0 3.0 40 ------- null}
- -t 0.190476190476191 -s 1 -d 2 -p cbr -e 1000 -c 2 -i 41 -a 2 -x {1.0 3.0 40 ------- null}
h -t 0.190476190476191 -s 1 -d 2 -p cbr -e 1000 -c 2 -i 41 -a 2 -x {1.0 3.0 -1 ------- null}
r -t 0.194952380952381 -s 1 -d 2 -p cbr -e 1000 -c 2 -i 39 -a 2 -x {1.0 3.0 38 ------- null}
+ -t 0.194952380952381 -s 2 -d 3 -p cbr -e 1000 -c 2 -i 39 -a 2 -x {1.0 3.0 38 ------- null}
d -t 0.194952380952381 -s 2 -d 3 -p cbr -e 1000 -c 2 -i 39 -a 2 -x {1.0 3.0 38 ------- null}
+ -t 0.195238095238095 -s 1 -d 2 -p cbr -e 1000 -c 2 -i 42 -a 2 -x {1.0 3.0 41 ------- null}
- -t 0.195238095238095 -s 1 -d 2 -p cbr -e 1000 -c 2 -i 42 -a 2 -x {1.0 3.0 41 ------- null}
h -t 0.195238095238095 -s 1 -d 2 -p cbr -e 1000 -c 2 -i 42 -a 2 -x {1.0 3.0 -1 ------- null}
r -t 0.199714285714286 -s 1 -d 2 -p cbr -e 1000 -c 2 -i 40 -a 2 -x {1.0 3.0 39 ------- null}
+ -t 0.199714285714286 -s 2 -d 3 -p cbr -e 1000 -c 2 -i 40 -a 2 -x {1.0 3.0 39 ------- null}
d -t 0.199714285714286 -s 2 -d 3 -p cbr -e 1000 -c 2 -i 40 -a 2 -x {1.0 3.0 39 ------- null}
+ -t 0.2 -s 1 -d 2 -p cbr -e 1000 -c 2 -i 43 -a 2 -x {1.0 3.0 42 ------- null}
- -t 0.2 -s 1 -d 2 -p cbr -e 1000 -c 2 -i 43 -a 2 -x {1.0 3.0 42 ------- null}
h -t 0.2 -s 1 -d 2 -p cbr -e 1000 -c 2 -i 43 -a 2 -x {1.0 3.0 -1 ------- null}
r -t 0.204476190476191 -s 1 -d 2 -p cbr -e 1000 -c 2 -i 41 -a 2 -x {1.0 3.0 40 ------- null}
+ -t 0.204476190476191 -s 2 -d 3 -p cbr -e 1000 -c 2 -i 41 -a 2 -x {1.0 3.0 40 ------- null}
d -t 0.204476190476191 -s 2 -d 3 -p cbr -e 1000 -c 2 -i 41 -a 2 -x {1.0 3.0 40 ------- null}
+ -t 0.204761904761905 -s 1 -d 2 -p cbr -e 1000 -c 2 -i 44 -a 2 -x {1.0 3.0 43 ------- null}
- -t 0.204761904761905 -s 1 -d 2 -p cbr -e 1000 -c 2 -i 44 -a 2 -x {1.0 3.0 43 ------- null}
h -t 0.204761904761905 -s 1 -d 2 -p cbr -e 1000 -c 2 -i 44 -a 2 -x {1.0 3.0 -1 ------- null}
r -t 0.209238095238095 -s 1 -d 2 -p cbr -e 1000 -c 2 -i 42 -a 2 -x {1.0 3.0 41 ------- null}
+ -t 0.209238095238095 -s 2 -d 3 -p cbr -e 1000 -c 2 -i 42 -a 2 -x {1.0 3.0 41 ------- null}
d -t 0.209238095238095 -s 2 -d 3 -p cbr -e 1000 -c 2 -i 42 -a 2 -x {1.0 3.0 41 ------- null}
+ -t 0.20952380952381 -s 1 -d 2 -p cbr -e 1000 -c 2 -i 45 -a 2 -x {1.0 3.0 44 ------- null}
- -t 0.20952380952381 -s 1 -d 2 -p cbr -e 1000 -c 2 -i 45 -a 2 -x {1.0 3.0 44 ------- null}
h -t 0.20952380952381 -s 1 -d 2 -p cbr -e 1000 -c 2 -i 45 -a 2 -x {1.0 3.0 -1 ------- null}
r -t 0.214 -s 1 -d 2 -p cbr -e 1000 -c 2 -i 43 -a 2 -x {1.0 3.0 42 ------- null}
+ -t 0.214 -s 2 -d 3 -p cbr -e 1000 -c 2 -i 43 -a 2 -x {1.0 3.0 42 ------- null}
d -t 0.214 -s 2 -d 3 -p cbr -e 1000 -c 2 -i 43 -a 2 -x {1.0 3.0 42 ------- null}
+ -t 0.214285714285714 -s 1 -d 2 -p cbr -e 1000 -c 2 -i 46 -a 2 -x {1.0 3.0 45 ------- null}
- -t 0.214285714285714 -s 1 -d 2 -p cbr -e 1000 -c 2 -i 46 -a 2 -x {1.0 3.0 45 ------- null}
h -t 0.214285714285714 -s 1 -d 2 -p cbr -e 1000 -c 2 -i 46 -a 2 -x {1.0 3.0 -1 ------- null}
r -t 0.218761904761905 -s 1 -d 2 -p cbr -e 1000 -c 2 -i 44 -a 2 -x {1.0 3.0 43 ------- null}
+ -t 0.218761904761905 -s 2 -d 3 -p cbr -e 1000 -c 2 -i 44 -a 2 -x {1.0 3.0 43 ------- null}
d -t 0.218761904761905 -s 2 -d 3 -p cbr -e 1000 -c 2 -i 44 -a 2 -x {1.0 3.0 43 ------- null}
+ -t 0.219047619047619 -s 1 -d 2 -p cbr -e 1000 -c 2 -i 47 -a 2 -x {1.0 3.0 46 ------- null}
- -t 0.219047619047619 -s 1 -d 2 -p cbr -e 1000 -c 2 -i 47 -a 2 -x {1.0 3.0 46 ------- null}
h -t 0.219047619047619 -s 1 -d 2 -p cbr -e 1000 -c 2 -i 47 -a 2 -x {1.0 3.0 -1 ------- null}
r -t 0.22352380952381 -s 1 -d 2 -p cbr -e 1000 -c 2 -i 45 -a 2 -x {1.0 3.0 44 ------- null}
+ -t 0.22352380952381 -s 2 -d 3 -p cbr -e 1000 -c 2 -i 45 -a 2 -x {1.0 3.0 44 ------- null}
d -t 0.22352380952381 -s 2 -d 3 -p cbr -e 1000 -c 2 -i 45 -a 2 -x {1.0 3.0 44 ------- null}
+ -t 0.223809523809524 -s 1 -d 2 -p cbr -e 1000 -c 2 -i 48 -a 2 -x {1.0 3.0 47 ------- null}
- -t 0.223809523809524 -s 1 -d 2 -p cbr -e 1000 -c 2 -i 48 -a 2 -x {1.0 3.0 47 ------- null}
h -t 0.223809523809524 -s 1 -d 2 -p cbr -e 1000 -c 2 -i 48 -a 2 -x {1.0 3.0 -1 ------- null}
r -t 0.228285714285714 -s 1 -d 2 -p cbr -e 1000 -c 2 -i 46 -a 2 -x {1.0 3.0 45 ------- null}
+ -t 0.228285714285714 -s 2 -d 3 -p cbr -e 1000 -c 2 -i 46 -a 2 -x {1.0 3.0 45 ------- null}
d -t 0.228285714285714 -s 2 -d 3 -p cbr -e 1000 -c 2 -i 46 -a 2 -x {1.0 3.0 45 ------- null}
+ -t 0.228571428571429 -s 1 -d 2 -p cbr -e 1000 -c 2 -i 49 -a 2 -x {1.0 3.0 48 ------- null}
- -t 0.228571428571429 -s 1 -d 2 -p cbr -e 1000 -c 2 -i 49 -a 2 -x {1.0 3.0 48 ------- null}
h -t 0.228571428571429 -s 1 -d 2 -p cbr -e 1000 -c 2 -i 49 -a 2 -x {1.0 3.0 -1 ------- null}
r -t 0.233047619047619 -s 1 -d 2 -p cbr -e 1000 -c 2 -i 47 -a 2 -x {1.0 3.0 46 ------- null}
+ -t 0.233047619047619 -s 2 -d 3 -p cbr -e 1000 -c 2 -i 47 -a 2 -x {1.0 3.0 46 ------- null}
d -t 0.233047619047619 -s 2 -d 3 -p cbr -e 1000 -c 2 -i 47 -a 2 -x {1.0 3.0 46 ------- null}
+ -t 0.233333333333334 -s 1 -d 2 -p cbr -e 1000 -c 2 -i 50 -a 2 -x {1.0 3.0 49 ------- null}
- -t 0.233333333333334 -s 1 -d 2 -p cbr -e 1000 -c 2 -i 50 -a 2 -x {1.0 3.0 49 ------- null}
h -t 0.233333333333334 -s 1 -d 2 -p cbr -e 1000 -c 2 -i 50 -a 2 -x {1.0 3.0 -1 ------- null}
r -t 0.237809523809524 -s 1 -d 2 -p cbr -e 1000 -c 2 -i 48 -a 2 -x {1.0 3.0 47 ------- null}
+ -t 0.237809523809524 -s 2 -d 3 -p cbr -e 1000 -c 2 -i 48 -a 2 -x {1.0 3.0 47 ------- null}
d -t 0.237809523809524 -s 2 -d 3 -p cbr -e 1000 -c 2 -i 48 -a 2 -x {1.0 3.0 47 ------- null}
+ -t 0.238095238095238 -s 1 -d 2 -p cbr -e 1000 -c 2 -i 51 -a 2 -x {1.0 3.0 50 ------- null}
- -t 0.238095238095238 -s 1 -d 2 -p cbr -e 1000 -c 2 -i 51 -a 2 -x {1.0 3.0 50 ------- null}
h -t 0.238095238095238 -s 1 -d 2 -p cbr -e 1000 -c 2 -i 51 -a 2 -x {1.0 3.0 -1 ------- null}
r -t 0.242571428571429 -s 1 -d 2 -p cbr -e 1000 -c 2 -i 49 -a 2 -x {1.0 3.0 48 ------- null}
+ -t 0.242571428571429 -s 2 -d 3 -p cbr -e 1000 -c 2 -i 49 -a 2 -x {1.0 3.0 48 ------- null}
d -t 0.242571428571429 -s 2 -d 3 -p cbr -e 1000 -c 2 -i 49 -a 2 -x {1.0 3.0 48 ------- null}
+ -t 0.242857142857143 -s 1 -d 2 -p cbr -e 1000 -c 2 -i 52 -a 2 -x {1.0 3.0 51 ------- null}
- -t 0.242857142857143 -s 1 -d 2 -p cbr -e 1000 -c 2 -i 52 -a 2 -x {1.0 3.0 51 ------- null}
h -t 0.242857142857143 -s 1 -d 2 -p cbr -e 1000 -c 2 -i 52 -a 2 -x {1.0 3.0 -1 ------- null}
r -t 0.247333333333334 -s 1 -d 2 -p cbr -e 1000 -c 2 -i 50 -a 2 -x {1.0 3.0 49 ------- null}
+ -t 0.247333333333334 -s 2 -d 3 -p cbr -e 1000 -c 2 -i 50 -a 2 -x {1.0 3.0 49 ------- null}
d -t 0.247333333333334 -s 2 -d 3 -p cbr -e 1000 -c 2 -i 50 -a 2 -x {1.0 3.0 49 ------- null}
+ -t 0.247619047619048 -s 1 -d 2 -p cbr -e 1000 -c 2 -i 53 -a 2 -x {1.0 3.0 52 ------- null}
- -t 0.247619047619048 -s 1 -d 2 -p cbr -e 1000 -c 2 -i 53 -a 2 -x {1.0 3.0 52 ------- null}
h -t 0.247619047619048 -s 1 -d 2 -p cbr -e 1000 -c 2 -i 53 -a 2 -x {1.0 3.0 -1 ------- null}
r -t 0.252095238095238 -s 1 -d 2 -p cbr -e 1000 -c 2 -i 51 -a 2 -x {1.0 3.0 50 ------- null}
+ -t 0.252095238095238 -s 2 -d 3 -p cbr -e 1000 -c 2 -i 51 -a 2 -x {1.0 3.0 50 ------- null}
d -t 0.252095238095238 -s 2 -d 3 -p cbr -e 1000 -c 2 -i 51 -a 2 -x {1.0 3.0 50 ------- null}
+ -t 0.252380952380953 -s 1 -d 2 -p cbr -e 1000 -c 2 -i 54 -a 2 -x {1.0 3.0 53 ------- null}
- -t 0.252380952380953 -s 1 -d 2 -p cbr -e 1000 -c 2 -i 54 -a 2 -x {1.0 3.0 53 ------- null}
h -t 0.252380952380953 -s 1 -d 2 -p cbr -e 1000 -c 2 -i 54 -a 2 -x {1.0 3.0 -1 ------- null}
r -t 0.256857142857143 -s 1 -d 2 -p cbr -e 1000 -c 2 -i 52 -a 2 -x {1.0 3.0 51 ------- null}
+ -t 0.256857142857143 -s 2 -d 3 -p cbr -e 1000 -c 2 -i 52 -a 2 -x {1.0 3.0 51 ------- null}
d -t 0.256857142857143 -s 2 -d 3 -p cbr -e 1000 -c 2 -i 52 -a 2 -x {1.0 3.0 51 ------- null}
+ -t 0.257142857142857 -s 1 -d 2 -p cbr -e 1000 -c 2 -i 55 -a 2 -x {1.0 3.0 54 ------- null}
- -t 0.257142857142857 -s 1 -d 2 -p cbr -e 1000 -c 2 -i 55 -a 2 -x {1.0 3.0 54 ------- null}
h -t 0.257142857142857 -s 1 -d 2 -p cbr -e 1000 -c 2 -i 55 -a 2 -x {1.0 3.0 -1 ------- null}
r -t 0.261619047619048 -s 1 -d 2 -p cbr -e 1000 -c 2 -i 53 -a 2 -x {1.0 3.0 52 ------- null}
+ -t 0.261619047619048 -s 2 -d 3 -p cbr -e 1000 -c 2 -i 53 -a 2 -x {1.0 3.0 52 ------- null}
d -t 0.261619047619048 -s 2 -d 3 -p cbr -e 1000 -c 2 -i 53 -a 2 -x {1.0 3.0 52 ------- null}
+ -t 0.261904761904762 -s 1 -d 2 -p cbr -e 1000 -c 2 -i 56 -a 2 -x {1.0 3.0 55 ------- null}
- -t 0.261904761904762 -s 1 -d 2 -p cbr -e 1000 -c 2 -i 56 -a 2 -x {1.0 3.0 55 ------- null}
h -t 0.261904761904762 -s 1 -d 2 -p cbr -e 1000 -c 2 -i 56 -a 2 -x {1.0 3.0 -1 ------- null}