+ 0 1 2 cbr 1000 ------- 2 1.0 3.0 0 0
- 0 1 2 cbr 1000 ------- 2 1.0 3.0 0 0
+ 0 0 2 tcp 40 ------- 1 0.0 3.1 0 1
- 0 0 2 tcp 40 ------- 1 0.0 3.1 0 1
+ 0.004762 1 2 cbr 1000 ------- 2 1.0 3.0 1 2
- 0.004762 1 2 cbr 1000 ------- 2 1.0 3.0 1 2
+ 0.009524 1 2 cbr 1000 ------- 2 1.0 3.0 2 3
- 0.009524 1 2 cbr 1000 ------- 2 1.0 3.0 2 3
r 0.01016 0 2 tcp 40 ------- 1 0.0 3.1 0 1
+ 0.01016 2 3 tcp 40 ------- 1 0.0 3.1 0 1
- 0.01016 2 3 tcp 40 ------- 1 0.0 3.1 0 1
r 0.014 1 2 cbr 1000 ------- 2 1.0 3.0 0 0
+ 0.014 2 3 cbr 1000 ------- 2 1.0 3.0 0 0
+ 0.014286 1 2 cbr 1000 ------- 2 1.0 3.0 3 4
- 0.014286 1 2 cbr 1000 ------- 2 1.0 3.0 3 4
r 0.018762 1 2 cbr 1000 ------- 2 1.0 3.0 1 2
+ 0.018762 2 3 cbr 1000 ------- 2 1.0 3.0 1 2
+ 0.019048 1 2 cbr 1000 ------- 2 1.0 3.0 4 5
- 0.019048 1 2 cbr 1000 ------- 2 1.0 3.0 4 5
r 0.023524 1 2 cbr 1000 ------- 2 1.0 3.0 2 3
+ 0.023524 2 3 cbr 1000 ------- 2 1.0 3.0 2 3
+ 0.02381 1 2 cbr 1000 ------- 2 1.0 3.0 5 6
- 0.02381 1 2 cbr 1000 ------- 2 1.0 3.0 5 6
r 0.028286 1 2 cbr 1000 ------- 2 1.0 3.0 3 4
+ 0.028286 2 3 cbr 1000 ------- 2 1.0 3.0 3 4
+ 0.028571 1 2 cbr 1000 ------- 2 1.0 3.0 6 7
- 0.028571 1 2 cbr 1000 ------- 2 1.0 3.0 6 7
r 0.033048 1 2 cbr 1000 ------- 2 1.0 3.0 4 5
+ 0.033048 2 3 cbr 1000 ------- 2 1.0 3.0 4 5
+ 0.033333 1 2 cbr 1000 ------- 2 1.0 3.0 7 8
- 0.033333 1 2 cbr 1000 ------- 2 1.0 3.0 7 8
r 0.03781 1 2 cbr 1000 ------- 2 1.0 3.0 5 6
+ 0.03781 2 3 cbr 1000 ------- 2 1.0 3.0 5 6
+ 0.038095 1 2 cbr 1000 ------- 2 1.0 3.0 8 9
- 0.038095 1 2 cbr 1000 ------- 2 1.0 3.0 8 9
r 0.042571 1 2 cbr 1000 ------- 2 1.0 3.0 6 7
+ 0.042571 2 3 cbr 1000 ------- 2 1.0 3.0 6 7
+ 0.042857 1 2 cbr 1000 ------- 2 1.0 3.0 9 10
- 0.042857 1 2 cbr 1000 ------- 2 1.0 3.0 9 10
r 0.047333 1 2 cbr 1000 ------- 2 1.0 3.0 7 8
+ 0.047333 2 3 cbr 1000 ------- 2 1.0 3.0 7 8
+ 0.047619 1 2 cbr 1000 ------- 2 1.0 3.0 10 11
- 0.047619 1 2 cbr 1000 ------- 2 1.0 3.0 10 11
r 0.052095 1 2 cbr 1000 ------- 2 1.0 3.0 8 9
+ 0.052095 2 3 cbr 1000 ------- 2 1.0 3.0 8 9
+ 0.052381 1 2 cbr 1000 ------- 2 1.0 3.0 11 12
- 0.052381 1 2 cbr 1000 ------- 2 1.0 3.0 11 12
r 0.056857 1 2 cbr 1000 ------- 2 1.0 3.0 9 10
+ 0.056857 2 3 cbr 1000 ------- 2 1.0 3.0 9 10
+ 0.057143 1 2 cbr 1000 ------- 2 1.0 3.0 12 13
- 0.057143 1 2 cbr 1000 ------- 2 1.0 3.0 12 13
r 0.061619 1 2 cbr 1000 ------- 2 1.0 3.0 10 11
+ 0.061619 2 3 cbr 1000 ------- 2 1.0 3.0 10 11
+ 0.061905 1 2 cbr 1000 ------- 2 1.0 3.0 13 14
- 0.061905 1 2 cbr 1000 ------- 2 1.0 3.0 13 14
r 0.066381 1 2 cbr 1000 ------- 2 1.0 3.0 11 12
+ 0.066381 2 3 cbr 1000 ------- 2 1.0 3.0 11 12
+ 0.066667 1 2 cbr 1000 ------- 2 1.0 3.0 14 15
- 0.066667 1 2 cbr 1000 ------- 2 1.0 3.0 14 15
r 0.071143 1 2 cbr 1000 ------- 2 1.0 3.0 12 13
+ 0.071143 2 3 cbr 1000 ------- 2 1.0 3.0 12 13
+ 0.071429 1 2 cbr 1000 ------- 2 1.0 3.0 15 16
- 0.071429 1 2 cbr 1000 ------- 2 1.0 3.0 15 16
r 0.075905 1 2 cbr 1000 ------- 2 1.0 3.0 13 14
+ 0.075905 2 3 cbr 1000 ------- 2 1.0 3.0 13 14
+ 0.07619 1 2 cbr 1000 ------- 2 1.0 3.0 16 17
- 0.07619 1 2 cbr 1000 ------- 2 1.0 3.0 16 17
r 0.080667 1 2 cbr 1000 ------- 2 1.0 3.0 14 15
+ 0.080667 2 3 cbr 1000 ------- 2 1.0 3.0 14 15
d 0.080667 2 3 cbr 1000 ------- 2 1.0 3.0 14 15
+ 0.080952 1 2 cbr 1000 ------- 2 1.0 3.0 17 18
- 0.080952 1 2 cbr 1000 ------- 2 1.0 3.0 17 18
r 0.085429 1 2 cbr 1000 ------- 2 1.0 3.0 15 16
+ 0.085429 2 3 cbr 1000 ------- 2 1.0 3.0 15 16
d 0.085429 2 3 cbr 1000 ------- 2 1.0 3.0 15 16
+ 0.085714 1 2 cbr 1000 ------- 2 1.0 3.0 18 19
- 0.085714 1 2 cbr 1000 ------- 2 1.0 3.0 18 19
r 0.09019 1 2 cbr 1000 ------- 2 1.0 3.0 16 17
+ 0.09019 2 3 cbr 1000 ------- 2 1.0 3.0 16 17
d 0.09019 2 3 cbr 1000 ------- 2 1.0 3.0 16 17
+ 0.090476 1 2 cbr 1000 ------- 2 1.0 3.0 19 20
- 0.090476 1 2 cbr 1000 ------- 2 1.0 3.0 19 20
r 0.094952 1 2 cbr 1000 ------- 2 1.0 3.0 17 18
+ 0.094952 2 3 cbr 1000 ------- 2 1.0 3.0 17 18
d 0.094952 2 3 cbr 1000 ------- 2 1.0 3.0 17 18
+ 0.095238 1 2 cbr 1000 ------- 2 1.0 3.0 20 21
- 0.095238 1 2 cbr 1000 ------- 2 1.0 3.0 20 21
r 0.099714 1 2 cbr 1000 ------- 2 1.0 3.0 18 19
+ 0.099714 2 3 cbr 1000 ------- 2 1.0 3.0 18 19
d 0.099714 2 3 cbr 1000 ------- 2 1.0 3.0 18 19
+ 0.1 1 2 cbr 1000 ------- 2 1.0 3.0 21 22
- 0.1 1 2 cbr 1000 ------- 2 1.0 3.0 21 22
r 0.104476 1 2 cbr 1000 ------- 2 1.0 3.0 19 20
+ 0.104476 2 3 cbr 1000 ------- 2 1.0 3.0 19 20
d 0.104476 2 3 cbr 1000 ------- 2 1.0 3.0 19 20
+ 0.104762 1 2 cbr 1000 ------- 2 1.0 3.0 22 23
- 0.104762 1 2 cbr 1000 ------- 2 1.0 3.0 22 23
r 0.109238 1 2 cbr 1000 ------- 2 1.0 3.0 20 21
+ 0.109238 2 3 cbr 1000 ------- 2 1.0 3.0 20 21
d 0.109238 2 3 cbr 1000 ------- 2 1.0 3.0 20 21
+ 0.109524 1 2 cbr 1000 ------- 2 1.0 3.0 23 24
- 0.109524 1 2 cbr 1000 ------- 2 1.0 3.0 23 24
r 0.114 1 2 cbr 1000 ------- 2 1.0 3.0 21 22
+ 0.114 2 3 cbr 1000 ------- 2 1.0 3.0 21 22
d 0.114 2 3 cbr 1000 ------- 2 1.0 3.0 21 22
+ 0.114286 1 2 cbr 1000 ------- 2 1.0 3.0 24 25
- 0.114286 1 2 cbr 1000 ------- 2 1.0 3.0 24 25
r 0.118762 1 2 cbr 1000 ------- 2 1.0 3.0 22 23
+ 0.118762 2 3 cbr 1000 ------- 2 1.0 3.0 22 23
d 0.118762 2 3 cbr 1000 ------- 2 1.0 3.0 22 23
+ 0.119048 1 2 cbr 1000 ------- 2 1.0 3.0 25 26
- 0.119048 1 2 cbr 1000 ------- 2 1.0 3.0 25 26
r 0.123524 1 2 cbr 1000 ------- 2 1.0 3.0 23 24
+ 0.123524 2 3 cbr 1000 ------- 2 1.0 3.0 23 24
d 0.123524 2 3 cbr 1000 ------- 2 1.0 3.0 23 24
+ 0.12381 1 2 cbr 1000 ------- 2 1.0 3.0 26 27
- 0.12381 1 2 cbr 1000 ------- 2 1.0 3.0 26 27
r 0.128286 1 2 cbr 1000 ------- 2 1.0 3.0 24 25
+ 0.128286 2 3 cbr 1000 ------- 2 1.0 3.0 24 25
d 0.128286 2 3 cbr 1000 ------- 2 1.0 3.0 24 25
+ 0.128571 1 2 cbr 1000 ------- 2 1.0 3.0 27 28
- 0.128571 1 2 cbr 1000 ------- 2 1.0 3.0 27 28
r 0.133048 1 2 cbr 1000 ------- 2 1.0 3.0 25 26
+ 0.133048 2 3 cbr 1000 ------- 2 1.0 3.0 25 26
d 0.133048 2 3 cbr 1000 ------- 2 1.0 3.0 25 26
+ 0.133333 1 2 cbr 1000 ------- 2 1.0 3.0 28 29
- 0.133333 1 2 cbr 1000 ------- 2 1.0 3.0 28 29
r 0.13781 1 2 cbr 1000 ------- 2 1.0 3.0 26 27
+ 0.13781 2 3 cbr 1000 ------- 2 1.0 3.0 26 27
d 0.13781 2 3 cbr 1000 ------- 2 1.0 3.0 26 27
+ 0.138095 1 2 cbr 1000 ------- 2 1.0 3.0 29 30
- 0.138095 1 2 cbr 1000 ------- 2 1.0 3.0 29 30
r 0.142571 1 2 cbr 1000 ------- 2 1.0 3.0 27 28
+ 0.142571 2 3 cbr 1000 ------- 2 1.0 3.0 27 28
d 0.142571 2 3 cbr 1000 ------- 2 1.0 3.0 27 28
+ 0.142857 1 2 cbr 1000 ------- 2 1.0 3.0 30 31
- 0.142857 1 2 cbr 1000 ------- 2 1.0 3.0 30 31
r 0.147333 1 2 cbr 1000 ------- 2 1.0 3.0 28 29
+ 0.147333 2 3 cbr 1000 ------- 2 1.0 3.0 28 29
d 0.147333 2 3 cbr 1000 ------- 2 1.0 3.0 28 29
+ 0.147619 1 2 cbr 1000 ------- 2 1.0 3.0 31 32
- 0.147619 1 2 cbr 1000 ------- 2 1.0 3.0 31 32
r 0.152095 1 2 cbr 1000 ------- 2 1.0 3.0 29 30
+ 0.152095 2 3 cbr 1000 ------- 2 1.0 3.0 29 30
d 0.152095 2 3 cbr 1000 ------- 2 1.0 3.0 29 30
+ 0.152381 1 2 cbr 1000 ------- 2 1.0 3.0 32 33
- 0.152381 1 2 cbr 1000 ------- 2 1.0 3.0 32 33
r 0.156857 1 2 cbr 1000 ------- 2 1.0 3.0 30 31
+ 0.156857 2 3 cbr 1000 ------- 2 1.0 3.0 30 31
d 0.156857 2 3 cbr 1000 ------- 2 1.0 3.0 30 31
+ 0.157143 1 2 cbr 1000 ------- 2 1.0 3.0 33 34
- 0.157143 1 2 cbr 1000 ------- 2 1.0 3.0 33 34
r 0.161619 1 2 cbr 1000 ------- 2 1.0 3.0 31 32
+ 0.161619 2 3 cbr 1000 ------- 2 1.0 3.0 31 32
d 0.161619 2 3 cbr 1000 ------- 2 1.0 3.0 31 32
+ 0.161905 1 2 cbr 1000 ------- 2 1.0 3.0 34 35
- 0.161905 1 2 cbr 1000 ------- 2 1.0 3.0 34 35
r 0.166381 1 2 cbr 1000 ------- 2 1.0 3.0 32 33
+ 0.166381 2 3 cbr 1000 ------- 2 1.0 3.0 32 33
d 0.166381 2 3 cbr 1000 ------- 2 1.0 3.0 32 33
+ 0.166667 1 2 cbr 1000 ------- 2 1.0 3.0 35 36
- 0.166667 1 2 cbr 1000 ------- 2 1.0 3.0 35 36
r 0.171143 1 2 cbr 1000 ------- 2 1.0 3.0 33 34
+ 0.171143 2 3 cbr 1000 ------- 2 1.0 3.0 33 34
d 0.171143 2 3 cbr 1000 ------- 2 1.0 3.0 33 34
+ 0.171429 1 2 cbr 1000 ------- 2 1.0 3.0 36 37
- 0.171429 1 2 cbr 1000 ------- 2 1.0 3.0 36 37
r 0.175905 1 2 cbr 1000 ------- 2 1.0 3.0 34 35
+ 0.175905 2 3 cbr 1000 ------- 2 1.0 3.0 34 35
d 0.175905 2 3 cbr 1000 ------- 2 1.0 3.0 34 35
+ 0.17619 1 2 cbr 1000 ------- 2 1.0 3.0 37 38
- 0.17619 1 2 cbr 1000 ------- 2 1.0 3.0 37 38
r 0.180667 1 2 cbr 1000 ------- 2 1.0 3.0 35 36
+ 0.180667 2 3 cbr 1000 ------- 2 1.0 3.0 35 36
d 0.180667 2 3 cbr 1000 ------- 2 1.0 3.0 35 36
+ 0.180952 1 2 cbr 1000 ------- 2 1.0 3.0 38 39
- 0.180952 1 2 cbr 1000 ------- 2 1.0 3.0 38 39
r 0.185429 1 2 cbr 1000 ------- 2 1.0 3.0 36 37
+ 0.185429 2 3 cbr 1000 ------- 2 1.0 3.0 36 37
d 0.185429 2 3 cbr 1000 ------- 2 1.0 3.0 36 37
+ 0.185714 1 2 cbr 1000 ------- 2 1.0 3.0 39 40
- 0.185714 1 2 cbr 1000 ------- 2 1.0 3.0 39 40
r 0.19019 1 2 cbr 1000 ------- 2 1.0 3.0 37 38
+ 0.19019 2 3 cbr 1000 ------- 2 1.0 3.0 37 38
d 0.19019 2 3 cbr 1000 ------- 2 1.0 3.0 37 38
+ 0.190476 1 2 cbr 1000 ------- 2 1.0 3.0 40 41
- 0.190476 1 2 cbr 1000 ------- 2 1.0 3.0 40 41
r 0.194952 1 2 cbr 1000 ------- 2 1.0 3.0 38 39
+ 0.194952 2 3 cbr 1000 ------- 2 1.0 3.0 38 39
d 0.194952 2 3 cbr 1000 ------- 2 1.0 3.0 38 39
+ 0.195238 1 2 cbr 1000 ------- 2 1.0 3.0 41 42
- 0.195238 1 2 cbr 1000 ------- 2 1.0 3.0 41 42
r 0.199714 1 2 cbr 1000 ------- 2 1.0 3.0 39 40
+ 0.199714 2 3 cbr 1000 ------- 2 1.0 3.0 39 40
d 0.199714 2 3 cbr 1000 ------- 2 1.0 3.0 39 40
+ 0.2 1 2 cbr 1000 ------- 2 1.0 3.0 42 43
- 0.2 1 2 cbr 1000 ------- 2 1.0 3.0 42 43
r 0.204476 1 2 cbr 1000 ------- 2 1.0 3.0 40 41
+ 0.204476 2 3 cbr 1000 ------- 2 1.0 3.0 40 41
d 0.204476 2 3 cbr 1000 ------- 2 1.0 3.0 40 41
+ 0.204762 1 2 cbr 1000 ------- 2 1.0 3.0 43 44
- 0.204762 1 2 cbr 1000 ------- 2 1.0 3.0 43 44
r 0.209238 1 2 cbr 1000 ------- 2 1.0 3.0 41 42
+ 0.209238 2 3 cbr 1000 ------- 2 1.0 3.0 41 42
d 0.209238 2 3 cbr 1000 ------- 2 1.0 3.0 41 42
+ 0.209524 1 2 cbr 1000 ------- 2 1.0 3.0 44 45
- 0.209524 1 2 cbr 1000 ------- 2 1.0 3.0 44 45
r 0.214 1 2 cbr 1000 ------- 2 1.0 3.0 42 43
+ 0.214 2 3 cbr 1000 ------- 2 1.0 3.0 42 43
d 0.214 2 3 cbr 1000 ------- 2 1.0 3.0 42 43
+ 0.214286 1 2 cbr 1000 ------- 2 1.0 3.0 45 46
- 0.214286 1 2 cbr 1000 ------- 2 1.0 3.0 45 46
r 0.218762 1 2 cbr 1000 ------- 2 1.0 3.0 43 44
+ 0.218762 2 3 cbr 1000 ------- 2 1.0 3.0 43 44
d 0.218762 2 3 cbr 1000 ------- 2 1.0 3.0 43 44
+ 0.219048 1 2 cbr 1000 ------- 2 1.0 3.0 46 47
- 0.219048 1 2 cbr 1000 ------- 2 1.0 3.0 46 47
r 0.223524 1 2 cbr 1000 ------- 2 1.0 3.0 44 45
+ 0.223524 2 3 cbr 1000 ------- 2 1.0 3.0 44 45
d 0.223524 2 3 cbr 1000 ------- 2 1.0 3.0 44 45
+ 0.22381 1 2 cbr 1000 ------- 2 1.0 3.0 47 48
- 0.22381 1 2 cbr 1000 ------- 2 1.0 3.0 47 48
r 0.228286 1 2 cbr 1000 ------- 2 1.0 3.0 45 46
+ 0.228286 2 3 cbr 1000 ------- 2 1.0 3.0 45 46
d 0.228286 2 3 cbr 1000 ------- 2 1.0 3.0 45 46
+ 0.228571 1 2 cbr 1000 ------- 2 1.0 3.0 48 49
- 0.228571 1 2 cbr 1000 ------- 2 1.0 3.0 48 49
r 0.233048 1 2 cbr 1000 ------- 2 1.0 3.0 46 47
+ 0.233048 2 3 cbr 1000 ------- 2 1.0 3.0 46 47
d 0.233048 2 3 cbr 1000 ------- 2 1.0 3.0 46 47
+ 0.233333 1 2 cbr 1000 ------- 2 1.0 3.0 49 50
- 0.233333 1 2 cbr 1000 ------- 2 1.0 3.0 49 50
r 0.23781 1 2 cbr 1000 ------- 2 1.0 3.0 47 48
+ 0.23781 2 3 cbr 1000 ------- 2 1.0 3.0 47 48
d 0.23781 2 3 cbr 1000 ------- 2 1.0 3.0 47 48
+ 0.238095 1 2 cbr 1000 ------- 2 1.0 3.0 50 51
- 0.238095 1 2 cbr 1000 ------- 2 1.0 3.0 50 51
r 0.242571 1 2 cbr 1000 ------- 2 1.0 3.0 48 49
+ 0.242571 2 3 cbr 1000 ------- 2 1.0 3.0 48 49
d 0.242571 2 3 cbr 1000 ------- 2 1.0 3.0 48 49
+ 0.242857 1 2 cbr 1000 ------- 2 1.0 3.0 51 52
- 0.242857 1 2 cbr 1000 ------- 2 1.0 3.0 51 52
r 0.247333 1 2 cbr 1000 ------- 2 1.0 3.0 49 50
+ 0.247333 2 3 cbr 1000 ------- 2 1.0 3.0 49 50
d 0.247333 2 3 cbr 1000 ------- 2 1.0 3.0 49 50
+ 0.247619 1 2 cbr 1000 ------- 2 1.0 3.0 52 53
- 0.247619 1 2 cbr 1000 ------- 2 1.0 3.0 52 53
r 0.252095 1 2 cbr 1000 ------- 2 1.0 3.0 50 51
+ 0.252095 2 3 cbr 1000 ------- 2 1.0 3.0 50 51
d 0.252095 2 3 cbr 1000 ------- 2 1.0 3.0 50 51
+ 0.252381 1 2 cbr 1000 ------- 2 1.0 3.0 53 54
- 0.252381 1 2 cbr 1000 ------- 2 1.0 3.0 53 54
r 0.256857 1 2 cbr 1000 ------- 2 1.0 3.0 51 52
+ 0.256857 2 3 cbr 1000 ------- 2 1.0 3.0 51 52
d 0.256857 2 3 cbr 1000 ------- 2 1.0 3.0 51 52
+ 0.257143 1 2 cbr 1000 ------- 2 1.0 3.0 54 55
- 0.257143 1 2 cbr 1000 ------- 2 1.0 3.0 54 55
r 0.261619 1 2 cbr 1000 ------- 2 1.0 3.0 52 53
+ 0.261619 2 3 cbr 1000 ------- 2 1.0 3.0 52 53
d 0.261619 2 3 cbr 1000 ------- 2 1.0 3.0 52 53
+ 0.261905 1 2 cbr 1000 ------- 2 1.0 3.0 55 56
- 0.261905 1 2 cbr 1000 ------- 2 1.0 3.0 55 56
r 0.266381 1 2 cbr 1000 ------- 2 1.0 3.0 53 54
+ 0.266381 2 3 cbr 1000 ------- 2 1.0 3.0 53 54
d 0.266381 2 3 cbr 1000 ------- 2 1.0 3.0 53 54
+ 0.266667 1 2 cbr 1000 ------- 2 1.0 3.0 56 57
- 0.266667 1 2 cbr 1000 ------- 2 1.0 3.0 56 57
r 0.271143 1 2 cbr 1000 ------- 2 1.0 3.0 54 55
+ 0.271143 2 3 cbr 1000 ------- 2 1.0 3.0 54 55
d 0.271143 2 3 cbr 1000 ------- 2 1.0 3.0 54 55
+ 0.271429 1 2 cbr 1000 ------- 2 1.0 3.0 57 58
- 0.271429 1 2 cbr 1000 ------- 2 1.0 3.0 57 58
r 0.275905 1 2 cbr 1000 ------- 2 1.0 3.0 55 56
+ 0.275905 2 3 cbr 1000 ------- 2 1.0 3.0 55 56
d 0.275905 2 3 cbr 1000 ------- 2 1.0 3.0 55 56
+ 0.27619 1 2 cbr 1000 ------- 2 1.0 3.0 58 59
- 0.27619 1 2 cbr 1000 ------- 2 1.0 3.0 58 59
r 0.280667 1 2 cbr 1000 ------- 2 1.0 3.0 56 57
+ 0.280667 2 3 cbr 1000 ------- 2 1.0 3.0 56 57
d 0.280667 2 3 cbr 1000 ------- 2 1.0 3.0 56 57
+ 0.280952 1 2 cbr 1000 ------- 2 1.0 3.0 59 60
- 0.280952 1 2 cbr 1000 ------- 2 1.0 3.0 59 60
r 0.285429 1 2 cbr 1000 ------- 2 1.0 3.0 57 58
+ 0.285429 2 3 cbr 1000 ------- 2 1.0 3.0 57 58
d 0.285429 2 3 cbr 1000 ------- 2 1.0 3.0 57 58
+ 0.285714 1 2 cbr 1000 ------- 2 1.0 3.0 60 61
- 0.285714 1 2 cbr 1000 ------- 2 1.0 3.0 60 61
r 0.29019 1 2 cbr 1000 ------- 2 1.0 3.0 58 59
+ 0.29019 2 3 cbr 1000 ------- 2 1.0 3.0 58 59
d 0.29019 2 3 cbr 1000 ------- 2 1.0 3.0 58 59
+ 0.290476 1 2 cbr 1000 ------- 2 1.0 3.0 61 62
- 0.290476 1 2 cbr 1000 ------- 2 1.0 3.0 61 62
r 0.294952 1 2 cbr 1000 ------- 2 1.0 3.0 59 60
+ 0.294952 2 3 cbr 1000 ------- 2 1.0 3.0 59 60
d 0.294952 2 3 cbr 1000 ------- 2 1.0 3.0 59 60
+ 0.295238 1 2 cbr 1000 ------- 2 1.0 3.0 62 63
- 0.295238 1 2 cbr 1000 ------- 2 1.0 3.0 62 63
r 0.299714 1 2 cbr 1000 ------- 2 1.0 3.0 60 61
+ 0.299714 2 3 cbr 1000 ------- 2 1.0 3.0 60 61
d 0.299714 2 3 cbr 1000 ------- 2 1.0 3.0 60 61
+ 0.3 1 2 cbr 1000 ------- 2 1.0 3.0 63 64
- 0.3 1 2 cbr 1000 ------- 2 1.0 3.0 63 64
r 0.304476 1 2 cbr 1000 ------- 2 1.0 3.0 61 62
+ 0.304476 2 3 cbr 1000 ------- 2 1.0 3.0 61 62
d 0.304476 2 3 cbr 1000 ------- 2 1.0 3.0 61 62
+ 0.304762 1 2 cbr 1000 ------- 2 1.0 3.0 64 65
- 0.304762 1 2 cbr 1000 ------- 2 1.0 3.0 64 65
r 0.309238 1 2 cbr 1000 ------- 2 1.0 3.0 62 63
+ 0.309238 2 3 cbr 1000 ------- 2 1.0 3.0 62 63
d 0.309238 2 3 cbr 1000 ------- 2 1.0 3.0 62 63
+ 0.309524 1 2 cbr 1000 ------- 2 1.0 3.0 65 66
- 0.309524 1 2 cbr 1000 ------- 2 1.0 3.0 65 66
r 0.314 1 2 cbr 1000 ------- 2 1.0 3.0 63 64
+ 0.314 2 3 cbr 1000 ------- 2 1.0 3.0 63 64
d 0.314 2 3 cbr 1000 ------- 2 1.0 3.0 63 64
+ 0.314286 1 2 cbr 1000 ------- 2 1.0 3.0 66 67
- 0.314286 1 2 cbr 1000 ------- 2 1.0 3.0 66 67
r 0.318762 1 2 cbr 1000 ------- 2 1.0 3.0 64 65
+ 0.318762 2 3 cbr 1000 ------- 2 1.0 3.0 64 65
d 0.318762 2 3 cbr 1000 ------- 2 1.0 3.0 64 65
+ 0.319048 1 2 cbr 1000 ------- 2 1.0 3.0 67 68
- 0.319048 1 2 cbr 1000 ------- 2 1.0 3.0 67 68
r 0.323524 1 2 cbr 1000 ------- 2 1.0 3.0 65 66
+ 0.323524 2 3 cbr 1000 ------- 2 1.0 3.0 65 66
d 0.323524 2 3 cbr 1000 ------- 2 1.0 3.0 65 66
+ 0.32381 1 2 cbr 1000 ------- 2 1.0 3.0 68 69
- 0.32381 1 2 cbr 1000 ------- 2 1.0 3.0 68 69
r 0.328286 1 2 cbr 1000 ------- 2 1.0 3.0 66 67
+ 0.328286 2 3 cbr 1000 ------- 2 1.0 3.0 66 67
d 0.328286 2 3 cbr 1000 ------- 2 1.0 3.0 66 67
+ 0.328571 1 2 cbr 1000 ------- 2 1.0 3.0 69 70
- 0.328571 1 2 cbr 1000 ------- 2 1.0 3.0 69 70
r 0.333048 1 2 cbr 1000 ------- 2 1.0 3.0 67 68
+ 0.333048 2 3 cbr 1000 ------- 2 1.0 3.0 67 68
d 0.333048 2 3 cbr 1000 ------- 2 1.0 3.0 67 68
+ 0.333333 1 2 cbr 1000 ------- 2 1.0 3.0 70 71
- 0.333333 1 2 cbr 1000 ------- 2 1.0 3.0 70 71
r 0.33781 1 2 cbr 1000 ------- 2 1.0 3.0 68 69
+ 0.33781 2 3 cbr 1000 ------- 2 1.0 3.0 68 69
d 0.33781 2 3 cbr 1000 ------- 2 1.0 3.0 68 69
+ 0.338095 1 2 cbr 1000 ------- 2 1.0 3.0 71 72
- 0.338095 1 2 cbr 1000 ------- 2 1.0 3.0 71 72
r 0.342571 1 2 cbr 1000 ------- 2 1.0 3.0 69 70
+ 0.342571 2 3 cbr 1000 ------- 2 1.0 3.0 69 70
d 0.342571 2 3 cbr 1000 ------- 2 1.0 3.0 69 70
+ 0.342857 1 2 cbr 1000 ------- 2 1.0 3.0 72 73
- 0.342857 1 2 cbr 1000 ------- 2 1.0 3.0 72 73
r 0.347333 1 2 cbr 1000 ------- 2 1.0 3.0 70 71
+ 0.347333 2 3 cbr 1000 ------- 2 1.0 3.0 70 71
d 0.347333 2 3 cbr 1000 ------- 2 1.0 3.0 70 71
+ 0.347619 1 2 cbr 1000 ------- 2 1.0 3.0 73 74
- 0.347619 1 2 cbr 1000 ------- 2 1.0 3.0 73 74
r 0.352095 1 2 cbr 1000 ------- 2 1.0 3.0 71 72
+ 0.352095 2 3 cbr 1000 ------- 2 1.0 3.0 71 72
d 0.352095 2 3 cbr 1000 ------- 2 1.0 3.0 71 72
+ 0.352381 1 2 cbr 1000 ------- 2 1.0 3.0 74 75
- 0.352381 1 2 cbr 1000 ------- 2 1.0 3.0 74 75
r 0.356857 1 2 cbr 1000 ------- 2 1.0 3.0 72 73
+ 0.356857 2 3 cbr 1000 ------- 2 1.0 3.0 72 73
d 0.356857 2 3 cbr 1000 ------- 2 1.0 3.0 72 73
+ 0.357143 1 2 cbr 1000 ------- 2 1.0 3.0 75 76
- 0.357143 1 2 cbr 1000 ------- 2 1.0 3.0 75 76
r 0.361619 1 2 cbr 1000 ------- 2 1.0 3.0 73 74
+ 0.361619 2 3 cbr 1000 ------- 2 1.0 3.0 73 74
d 0.361619 2 3 cbr 1000 ------- 2 1.0 3.0 73 74
+ 0.361905 1 2 cbr 1000 ------- 2 1.0 3.0 76 77
- 0.361905 1 2 cbr 1000 ------- 2 1.0 3.0 76 77
r 0.366381 1 2 cbr 1000 ------- 2 1.0 3.0 74 75
+ 0.366381 2 3 cbr 1000 ------- 2 1.0 3.0 74 75
d 0.366381 2 3 cbr 1000 ------- 2 1.0 3.0 74 75
+ 0.366667 1 2 cbr 1000 ------- 2 1.0 3.0 77 78
- 0.366667 1 2 cbr 1000 ------- 2 1.0 3.0 77 78
r 0.371143 1 2 cbr 1000 ------- 2 1.0 3.0 75 76
+ 0.371143 2 3 cbr 1000 ------- 2 1.0 3.0 75 76
d 0.371143 2 3 cbr 1000 ------- 2 1.0 3.0 75 76
+ 0.371429 1 2 cbr 1000 ------- 2 1.0 3.0 78 79
- 0.371429 1 2 cbr 1000 ------- 2 1.0 3.0 78 79
r 0.375905 1 2 cbr 1000 ------- 2 1.0 3.0 76 77
+ 0.375905 2 3 cbr 1000 ------- 2 1.0 3.0 76 77
d 0.375905 2 3 cbr 1000 ------- 2 1.0 3.0 76 77
+ 0.37619 1 2 cbr 1000 ------- 2 1.0 3.0 79 80
- 0.37619 1 2 cbr 1000 ------- 2 1.0 3.0 79 80
r 0.380667 1 2 cbr 1000 ------- 2 1.0 3.0 77 78
+ 0.380667 2 3 cbr 1000 ------- 2 1.0 3.0 77 78
d 0.380667 2 3 cbr 1000 ------- 2 1.0 3.0 77 78
+ 0.380952 1 2 cbr 1000 ------- 2 1.0 3.0 80 81
- 0.380952 1 2 cbr 1000 ------- 2 1.0 3.0 80 81
r 0.385429 1 2 cbr 1000 ------- 2 1.0 3.0 78 79
+ 0.385429 2 3 cbr 1000 ------- 2 1.0 3.0 78 79
d 0.385429 2 3 cbr 1000 ------- 2 1.0 3.0 78 79
+ 0.385714 1 2 cbr 1000 ------- 2 1.0 3.0 81 82
- 0.385714 1 2 cbr 1000 ------- 2 1.0 3.0 81 82
r 0.39019 1 2 cbr 1000 ------- 2 1.0 3.0 79 80
+ 0.39019 2 3 cbr 1000 ------- 2 1.0 3.0 79 80
d 0.39019 2 3 cbr 1000 ------- 2 1.0 3.0 79 80
+ 0.390476 1 2 cbr 1000 ------- 2 1.0 3.0 82 83
- 0.390476 1 2 cbr 1000 ------- 2 1.0 3.0 82 83
r 0.394952 1 2 cbr 1000 ------- 2 1.0 3.0 80 81
+ 0.394952 2 3 cbr 1000 ------- 2 1.0 3.0 80 81
d 0.394952 2 3 cbr 1000 ------- 2 1.0 3.0 80 81
+ 0.395238 1 2 cbr 1000 ------- 2 1.0 3.0 83 84
- 0.395238 1 2 cbr 1000 ------- 2 1.0 3.0 83 84
r 0.399714 1 2 cbr 1000 ------- 2 1.0 3.0 81 82
+ 0.399714 2 3 cbr 1000 ------- 2 1.0 3.0 81 82
d 0.399714 2 3 cbr 1000 ------- 2 1.0 3.0 81 82
+ 0.4 1 2 cbr 1000 ------- 2 1.0 3.0 84 85
- 0.4 1 2 cbr 1000 ------- 2 1.0 3.0 84 85
r 0.404476 1 2 cbr 1000 ------- 2 1.0 3.0 82 83
+ 0.404476 2 3 cbr 1000 ------- 2 1.0 3.0 82 83
d 0.404476 2 3 cbr 1000 ------- 2 1.0 3.0 82 83
+ 0.404762 1 2 cbr 1000 ------- 2 1.0 3.0 85 86
- 0.404762 1 2 cbr 1000 ------- 2 1.0 3.0 85 86
r 0.409238 1 2 cbr 1000 ------- 2 1.0 3.0 83 84
+ 0.409238 2 3 cbr 1000 ------- 2 1.0 3.0 83 84
d 0.409238 2 3 cbr 1000 ------- 2 1.0 3.0 83 84
+ 0.409524 1 2 cbr 1000 ------- 2 1.0 3.0 86 87
- 0.409524 1 2 cbr 1000 ------- 2 1.0 3.0 86 87
r 0.414 1 2 cbr 1000 ------- 2 1.0 3.0 84 85
+ 0.414 2 3 cbr 1000 ------- 2 1.0 3.0 84 85
d 0.414 2 3 cbr 1000 ------- 2 1.0 3.0 84 85
+ 0.414286 1 2 cbr 1000 ------- 2 1.0 3.0 87 88
- 0.414286 1 2 cbr 1000 ------- 2 1.0 3.0 87 88
r 0.418762 1 2 cbr 1000 ------- 2 1.0 3.0 85 86
+ 0.418762 2 3 cbr 1000 ------- 2 1.0 3.0 85 86
d 0.418762 2 3 cbr 1000 ------- 2 1.0 3.0 85 86
+ 0.419048 1 2 cbr 1000 ------- 2 1.0 3.0 88 89
- 0.419048 1 2 cbr 1000 ------- 2 1.0 3.0 88 89
r 0.423524 1 2 cbr 1000 ------- 2 1.0 3.0 86 87
+ 0.423524 2 3 cbr 1000 ------- 2 1.0 3.0 86 87
d 0.423524 2 3 cbr 1000 ------- 2 1.0 3.0 86 87
+ 0.42381 1 2 cbr 1000 ------- 2 1.0 3.0 89 90
- 0.42381 1 2 cbr 1000 ------- 2 1.0 3.0 89 90
r 0.428286 1 2 cbr 1000 ------- 2 1.0 3.0 87 88
+ 0.428286 2 3 cbr 1000 ------- 2 1.0 3.0 87 88
d 0.428286 2 3 cbr 1000 ------- 2 1.0 3.0 87 88
+ 0.428571 1 2 cbr 1000 ------- 2 1.0 3.0 90 91
- 0.428571 1 2 cbr 1000 ------- 2 1.0 3.0 90 91
r 0.433048 1 2 cbr 1000 ------- 2 1.0 3.0 88 89
+ 0.433048 2 3 cbr 1000 ------- 2 1.0 3.0 88 89
d 0.433048 2 3 cbr 1000 ------- 2 1.0 3.0 88 89
+ 0.433333 1 2 cbr 1000 ------- 2 1.0 3.0 91 92
- 0.433333 1 2 cbr 1000 ------- 2 1.0 3.0 91 92
r 0.43781 1 2 cbr 1000 ------- 2 1.0 3.0 89 90
+ 0.43781 2 3 cbr 1000 ------- 2 1.0 3.0 89 90
d 0.43781 2 3 cbr 1000 ------- 2 1.0 3.0 89 90
+ 0.438095 1 2 cbr 1000 ------- 2 1.0 3.0 92 93
- 0.438095 1 2 cbr 1000 ------- 2 1.0 3.0 92 93
r 0.442571 1 2 cbr 1000 ------- 2 1.0 3.0 90 91
+ 0.442571 2 3 cbr 1000 ------- 2 1.0 3.0 90 91
d 0.442571 2 3 cbr 1000 ------- 2 1.0 3.0 90 91
+ 0.442857 1 2 cbr 1000 ------- 2 1.0 3.0 93 94
- 0.442857 1 2 cbr 1000 ------- 2 1.0 3.0 93 94
r 0.447333 1 2 cbr 1000 ------- 2 1.0 3.0 91 92
+ 0.447333 2 3 cbr 1000 ------- 2 1.0 3.0 91 92
d 0.447333 2 3 cbr 1000 ------- 2 1.0 3.0 91 92
+ 0.447619 1 2 cbr 1000 ------- 2 1.0 3.0 94 95
- 0.447619 1 2 cbr 1000 ------- 2 1.0 3.0 94 95
r 0.452095 1 2 cbr 1000 ------- 2 1.0 3.0 92 93
+ 0.452095 2 3 cbr 1000 ------- 2 1.0 3.0 92 93
d 0.452095 2 3 cbr 1000 ------- 2 1.0 3.0 92 93
+ 0.452381 1 2 cbr 1000 ------- 2 1.0 3.0 95 96
- 0.452381 1 2 cbr 1000 ------- 2 1.0 3.0 95 96
r 0.456857 1 2 cbr 1000 ------- 2 1.0 3.0 93 94
+ 0.456857 2 3 cbr 1000 ------- 2 1.0 3.0 93 94
d 0.456857 2 3 cbr 1000 ------- 2 1.0 3.0 93 94
+ 0.457143 1 2 cbr 1000 ------- 2 1.0 3.0 96 97
- 0.457143 1 2 cbr 1000 ------- 2 1.0 3.0 96 97
r 0.461619 1 2 cbr 1000 ------- 2 1.0 3.0 94 95
+ 0.461619 2 3 cbr 1000 ------- 2 1.0 3.0 94 95
d 0.461619 2 3 cbr 1000 ------- 2 1.0 3.0 94 95
+ 0.461905 1 2 cbr 1000 ------- 2 1.0 3.0 97 98
- 0.461905 1 2 cbr 1000 ------- 2 1.0 3.0 97 98
r 0.466381 1 2 cbr 1000 ------- 2 1.0 3.0 95 96
+ 0.466381 2 3 cbr 1000 ------- 2 1.0 3.0 95 96
d 0.466381 2 3 cbr 1000 ------- 2 1.0 3.0 95 96
+ 0.466667 1 2 cbr 1000 ------- 2 1.0 3.0 98 99
- 0.466667 1 2 cbr 1000 ------- 2 1.0 3.0 98 99
r 0.471143 1 2 cbr 1000 ------- 2 1.0 3.0 96 97
+ 0.471143 2 3 cbr 1000 ------- 2 1.0 3.0 96 97
d 0.471143 2 3 cbr 1000 ------- 2 1.0 3.0 96 97
+ 0.471429 1 2 cbr 1000 ------- 2 1.0 3.0 99 100
- 0.471429 1 2 cbr 1000 ------- 2 1.0 3.0 99 100
r 0.475905 1 2 cbr 1000 ------- 2 1.0 3.0 97 98
+ 0.475905 2 3 cbr 1000 ------- 2 1.0 3.0 97 98
d 0.475905 2 3 cbr 1000 ------- 2 1.0 3.0 97 98
+ 0.47619 1 2 cbr 1000 ------- 2 1.0 3.0 100 101
- 0.47619 1 2 cbr 1000 ------- 2 1.0 3.0 100 101
r 0.480667 1 2 cbr 1000 ------- 2 1.0 3.0 98 99
+ 0.480667 2 3 cbr 1000 ------- 2 1.0 3.0 98 99
d 0.480667 2 3 cbr 1000 ------- 2 1.0 3.0 98 99
+ 0.480952 1 2 cbr 1000 ------- 2 1.0 3.0 101 102
- 0.480952 1 2 cbr 1000 ------- 2 1.0 3.0 101 102
r 0.485429 1 2 cbr 1000 ------- 2 1.0 3.0 99 100
+ 0.485429 2 3 cbr 1000 ------- 2 1.0 3.0 99 100
d 0.485429 2 3 cbr 1000 ------- 2 1.0 3.0 99 100
+ 0.485714 1 2 cbr 1000 ------- 2 1.0 3.0 102 103
- 0.485714 1 2 cbr 1000 ------- 2 1.0 3.0 102 103
r 0.49019 1 2 cbr 1000 ------- 2 1.0 3.0 100 101
+ 0.49019 2 3 cbr 1000 ------- 2 1.0 3.0 100 101
d 0.49019 2 3 cbr 1000 ------- 2 1.0 3.0 100 101
+ 0.490476 1 2 cbr 1000 ------- 2 1.0 3.0 103 104
- 0.490476 1 2 cbr 1000 ------- 2 1.0 3.0 103 104
r 0.494952 1 2 cbr 1000 ------- 2 1.0 3.0 101 102
+ 0.494952 2 3 cbr 1000 ------- 2 1.0 3.0 101 102
d 0.494952 2 3 cbr 1000 ------- 2 1.0 3.0 101 102
+ 0.495238 1 2 cbr 1000 ------- 2 1.0 3.0 104 105
- 0.495238 1 2 cbr 1000 ------- 2 1.0 3.0 104 105
r 0.499714 1 2 cbr 1000 ------- 2 1.0 3.0 102 103
+ 0.499714 2 3 cbr 1000 ------- 2 1.0 3.0 102 103
d 0.499714 2 3 cbr 1000 ------- 2 1.0 3.0 102 103
+ 0.5 1 2 cbr 1000 ------- 2 1.0 3.0 105 106
- 0.5 1 2 cbr 1000 ------- 2 1.0 3.0 105 106
r 0.504476 1 2 cbr 1000 ------- 2 1.0 3.0 103 104
+ 0.504476 2 3 cbr 1000 ------- 2 1.0 3.0 103 104
d 0.504476 2 3 cbr 1000 ------- 2 1.0 3.0 103 104
+ 0.504762 1 2 cbr 1000 ------- 2 1.0 3.0 106 107
- 0.504762 1 2 cbr 1000 ------- 2 1.0 3.0 106 107
r 0.509238 1 2 cbr 1000 ------- 2 1.0 3.0 104 105
+ 0.509238 2 3 cbr 1000 ------- 2 1.0 3.0 104 105
d 0.509238 2 3 cbr 1000 ------- 2 1.0 3.0 104 105
+ 0.509524 1 2 cbr 1000 ------- 2 1.0 3.0 107 108
- 0.509524 1 2 cbr 1000 ------- 2 1.0 3.0 107 108
r 0.514 1 2 cbr 1000 ------- 2 1.0 3.0 105 106
+ 0.514 2 3 cbr 1000 ------- 2 1.0 3.0 105 106
d 0.514 2 3 cbr 1000 ------- 2 1.0 3.0 105 106
+ 0.514286 1 2 cbr 1000 ------- 2 1.0 3.0 108 109
- 0.514286 1 2 cbr 1000 ------- 2 1.0 3.0 108 109
r 0.518762 1 2 cbr 1000 ------- 2 1.0 3.0 106 107
+ 0.518762 2 3 cbr 1000 ------- 2 1.0 3.0 106 107
d 0.518762 2 3 cbr 1000 ------- 2 1.0 3.0 106 107
+ 0.519048 1 2 cbr 1000 ------- 2 1.0 3.0 109 110
- 0.519048 1 2 cbr 1000 ------- 2 1.0 3.0 109 110
r 0.523524 1 2 cbr 1000 ------- 2 1.0 3.0 107 108
+ 0.523524 2 3 cbr 1000 ------- 2 1.0 3.0 107 108
d 0.523524 2 3 cbr 1000 ------- 2 1.0 3.0 107 108
+ 0.52381 1 2 cbr 1000 ------- 2 1.0 3.0 110 111
- 0.52381 1 2 cbr 1000 ------- 2 1.0 3.0 110 111
r 0.528286 1 2 cbr 1000 ------- 2 1.0 3.0 108 109
+ 0.528286 2 3 cbr 1000 ------- 2 1.0 3.0 108 109
d 0.528286 2 3 cbr 1000 ------- 2 1.0 3.0 108 109
+ 0.528571 1 2 cbr 1000 ------- 2 1.0 3.0 111 112
- 0.528571 1 2 cbr 1000 ------- 2 1.0 3.0 111 112
r 0.533048 1 2 cbr 1000 ------- 2 1.0 3.0 109 110
+ 0.533048 2 3 cbr 1000 ------- 2 1.0 3.0 109 110
d 0.533048 2 3 cbr 1000 ------- 2 1.0 3.0 109 110
+ 0.533333 1 2 cbr 1000 ------- 2 1.0 3.0 112 113
- 0.533333 1 2 cbr 1000 ------- 2 1.0 3.0 112 113
r 0.53781 1 2 cbr 1000 ------- 2 1.0 3.0 110 111
+ 0.53781 2 3 cbr 1000 ------- 2 1.0 3.0 110 111
d 0.53781 2 3 cbr 1000 ------- 2 1.0 3.0 110 111
+ 0.538095 1 2 cbr 1000 ------- 2 1.0 3.0 113 114
- 0.538095 1 2 cbr 1000 ------- 2 1.0 3.0 113 114
r 0.542571 1 2 cbr 1000 ------- 2 1.0 3.0 111 112
+ 0.542571 2 3 cbr 1000 ------- 2 1.0 3.0 111 112
d 0.542571 2 3 cbr 1000 ------- 2 1.0 3.0 111 112
+ 0.542857 1 2 cbr 1000 ------- 2 1.0 3.0 114 115
- 0.542857 1 2 cbr 1000 ------- 2 1.0 3.0 114 115
r 0.547333 1 2 cbr 1000 ------- 2 1.0 3.0 112 113
+ 0.547333 2 3 cbr 1000 ------- 2 1.0 3.0 112 113
d 0.547333 2 3 cbr 1000 ------- 2 1.0 3.0 112 113
+ 0.547619 1 2 cbr 1000 ------- 2 1.0 3.0 115 116
- 0.547619 1 2 cbr 1000 ------- 2 1.0 3.0 115 116
r 0.552095 1 2 cbr 1000 ------- 2 1.0 3.0 113 114
+ 0.552095 2 3 cbr 1000 ------- 2 1.0 3.0 113 114
d 0.552095 2 3 cbr 1000 ------- 2 1.0 3.0 113 114
+ 0.552381 1 2 cbr 1000 ------- 2 1.0 3.0 116 117
- 0.552381 1 2 cbr 1000 ------- 2 1.0 3.0 116 117
r 0.556857 1 2 cbr 1000 ------- 2 1.0 3.0 114 115
+ 0.556857 2 3 cbr 1000 ------- 2 1.0 3.0 114 115
d 0.556857 2 3 cbr 1000 ------- 2 1.0 3.0 114 115
+ 0.557143 1 2 cbr 1000 ------- 2 1.0 3.0 117 118
- 0.557143 1 2 cbr 1000 ------- 2 1.0 3.0 117 118
r 0.561619 1 2 cbr 1000 ------- 2 1.0 3.0 115 116
+ 0.561619 2 3 cbr 1000 ------- 2 1.0 3.0 115 116
d 0.561619 2 3 cbr 1000 ------- 2 1.0 3.0 115 116
+ 0.561905 1 2 cbr 1000 ------- 2 1.0 3.0 118 119
- 0.561905 1 2 cbr 1000 ------- 2 1.0 3.0 118 119
r 0.566381 1 2 cbr 1000 ------- 2 1.0 3.0 116 117
+ 0.566381 2 3 cbr 1000 ------- 2 1.0 3.0 116 117
d 0.566381 2 3 cbr 1000 ------- 2 1.0 3.0 116 117
+ 0.566667 1 2 cbr 1000 ------- 2 1.0 3.0 119 120
- 0.566667 1 2 cbr 1000 ------- 2 1.0 3.0 119 120
r 0.571143 1 2 cbr 1000 ------- 2 1.0 3.0 117 118
+ 0.571143 2 3 cbr 1000 ------- 2 1.0 3.0 117 118
d 0.571143 2 3 cbr 1000 ------- 2 1.0 3.0 117 118
+ 0.571429 1 2 cbr 1000 ------- 2 1.0 3.0 120 121
- 0.571429 1 2 cbr 1000 ------- 2 1.0 3.0 120 121
r 0.575905 1 2 cbr 1000 ------- 2 1.0 3.0 118 119
+ 0.575905 2 3 cbr 1000 ------- 2 1.0 3.0 118 119
d 0.575905 2 3 cbr 1000 ------- 2 1.0 3.0 118 119
+ 0.57619 1 2 cbr 1000 ------- 2 1.0 3.0 121 122
- 0.57619 1 2 cbr 1000 ------- 2 1.0 3.0 121 122
r 0.580667 1 2 cbr 1000 ------- 2 1.0 3.0 119 120
+ 0.580667 2 3 cbr 1000 ------- 2 1.0 3.0 119 120
d 0.580667 2 3 cbr 1000 ------- 2 1.0 3.0 119 120
+ 0.580952 1 2 cbr 1000 ------- 2 1.0 3.0 122 123
- 0.580952 1 2 cbr 1000 ------- 2 1.0 3.0 122 123
r 0.585429 1 2 cbr 1000 ------- 2 1.0 3.0 120 121
+ 0.585429 2 3 cbr 1000 ------- 2 1.0 3.0 120 121
d 0.585429 2 3 cbr 1000 ------- 2 1.0 3.0 120 121
+ 0.585714 1 2 cbr 1000 ------- 2 1.0 3.0 123 124
- 0.585714 1 2 cbr 1000 ------- 2 1.0 3.0 123 124
r 0.59019 1 2 cbr 1000 ------- 2 1.0 3.0 121 122
+ 0.59019 2 3 cbr 1000 ------- 2 1.0 3.0 121 122
d 0.59019 2 3 cbr 1000 ------- 2 1.0 3.0 121 122
+ 0.590476 1 2 cbr 1000 ------- 2 1.0 3.0 124 125
- 0.590476 1 2 cbr 1000 ------- 2 1.0 3.0 124 125
r 0.594952 1 2 cbr 1000 ------- 2 1.0 3.0 122 123
+ 0.594952 2 3 cbr 1000 ------- 2 1.0 3.0 122 123
d 0.594952 2 3 cbr 1000 ------- 2 1.0 3.0 122 123
+ 0.595238 1 2 cbr 1000 ------- 2 1.0 3.0 125 126
- 0.595238 1 2 cbr 1000 ------- 2 1.0 3.0 125 126
r 0.599714 1 2 cbr 1000 ------- 2 1.0 3.0 123 124
+ 0.599714 2 3 cbr 1000 ------- 2 1.0 3.0 123 124
d 0.599714 2 3 cbr 1000 ------- 2 1.0 3.0 123 124
+ 0.6 1 2 cbr 1000 ------- 2 1.0 3.0 126 127
- 0.6 1 2 cbr 1000 ------- 2 1.0 3.0 126 127
r 0.604476 1 2 cbr 1000 ------- 2 1.0 3.0 124 125
+ 0.604476 2 3 cbr 1000 ------- 2 1.0 3.0 124 125
d 0.604476 2 3 cbr 1000 ------- 2 1.0 3.0 124 125
+ 0.604762 1 2 cbr 1000 ------- 2 1.0 3.0 127 128
- 0.604762 1 2 cbr 1000 ------- 2 1.0 3.0 127 128
r 0.609238 1 2 cbr 1000 ------- 2 1.0 3.0 125 126
+ 0.609238 2 3 cbr 1000 ------- 2 1.0 3.0 125 126
d 0.609238 2 3 cbr 1000 ------- 2 1.0 3.0 125 126