V -t * -v 1.0a5 -a 0
A -t * -n 1 -p 0 -o 0x7fffffff -c 30 -a 1
A -t * -h 1 -m 1073741823 -s 0
n -t * -a 0 -s 0 -S UP -v circle -c black -i black
n -t * -a 1 -s 1 -S UP -v circle -c black -i black
n -t * -a 2 -s 2 -S UP -v circle -c black -i black
n -t * -a 3 -s 3 -S UP -v circle -c black -i black
n -t * -a 4 -s 4 -S UP -v circle -c black -i black
n -t * -a 5 -s 5 -S UP -v circle -c black -i black
n -t * -a 6 -s 6 -S UP -v circle -c black -i black
n -t * -a 7 -s 7 -S UP -v circle -c black -i black
n -t * -a 8 -s 8 -S UP -v circle -c black -i black
n -t * -a 9 -s 9 -S UP -v circle -c black -i black
l -t * -s 4 -d 5 -S UP -r 1000000 -D 0.029999999999999999 -c black
X -t * -n 10 -r 2Mb -D 10ms -o left
L -t * -s 10 -d 0 -o up
L -t * -s 10 -d 1 -o down
L -t * -s 10 -d 2 -o up
L -t * -s 10 -d 3 -o down
L -t * -s 10 -d 4 -o up
X -t * -n 11 -r 2Mb -D 10ms -o left
L -t * -s 11 -d 5 -o up
L -t * -s 11 -d 6 -o down
L -t * -s 11 -d 7 -o up
L -t * -s 11 -d 8 -o down
L -t * -s 11 -d 9 -o up
h -t 0.5 -s 8 -d 11 -p cbr -e 500 -c 0 -i 0 -a 0 -x {8.0 1.0 0 ------- null}
h -t 0.501 -s 8 -d 11 -p cbr -e 500 -c 0 -i 1 -a 0 -x {8.0 1.0 1 ------- null}
h -t 0.502 -s 8 -d 11 -p cbr -e 500 -c 0 -i 2 -a 0 -x {8.0 1.0 2 ------- null}
h -t 0.503 -s 8 -d 11 -p cbr -e 500 -c 0 -i 3 -a 0 -x {8.0 1.0 3 ------- null}
h -t 0.504 -s 8 -d 11 -p cbr -e 500 -c 0 -i 4 -a 0 -x {8.0 1.0 4 ------- null}
h -t 0.505 -s 8 -d 11 -p cbr -e 500 -c 0 -i 5 -a 0 -x {8.0 1.0 5 ------- null}
h -t 0.506 -s 8 -d 11 -p cbr -e 500 -c 0 -i 6 -a 0 -x {8.0 1.0 6 ------- null}
h -t 0.507 -s 8 -d 11 -p cbr -e 500 -c 0 -i 7 -a 0 -x {8.0 1.0 7 ------- null}
h -t 0.508 -s 8 -d 11 -p cbr -e 500 -c 0 -i 8 -a 0 -x {8.0 1.0 8 ------- null}
h -t 0.509 -s 8 -d 11 -p cbr -e 500 -c 0 -i 9 -a 0 -x {8.0 1.0 9 ------- null}
+ -t 0.51 -s 8 -d 11 -p cbr -e 500 -c 0 -i 0 -a 0 -x {8.0 1.0 0 ------- null}
- -t 0.51 -s 8 -d 11 -p cbr -e 500 -c 0 -i 0 -a 0 -x {8.0 1.0 0 ------- null}
h -t 0.51 -s 8 -d 11 -p cbr -e 500 -c 0 -i 0 -a 0 -x {8.0 1.0 -1 ------- null}
h -t 0.51 -s 8 -d 11 -p cbr -e 500 -c 0 -i 10 -a 0 -x {8.0 1.0 10 ------- null}
+ -t 0.511 -s 8 -d 11 -p cbr -e 500 -c 0 -i 1 -a 0 -x {8.0 1.0 1 ------- null}
h -t 0.511 -s 8 -d 11 -p cbr -e 500 -c 0 -i 11 -a 0 -x {8.0 1.0 11 ------- null}
+ -t 0.512 -s 8 -d 11 -p cbr -e 500 -c 0 -i 2 -a 0 -x {8.0 1.0 2 ------- null}
h -t 0.512 -s 8 -d 11 -p cbr -e 500 -c 0 -i 12 -a 0 -x {8.0 1.0 12 ------- null}
- -t 0.512104 -s 8 -d 11 -p cbr -e 500 -c 0 -i 1 -a 0 -x {8.0 1.0 1 ------- null}
h -t 0.512104 -s 8 -d 11 -p cbr -e 500 -c 0 -i 1 -a 0 -x {8.0 1.0 -1 ------- null}
+ -t 0.513 -s 8 -d 11 -p cbr -e 500 -c 0 -i 3 -a 0 -x {8.0 1.0 3 ------- null}
h -t 0.513 -s 8 -d 11 -p cbr -e 500 -c 0 -i 13 -a 0 -x {8.0 1.0 13 ------- null}
+ -t 0.514 -s 8 -d 11 -p cbr -e 500 -c 0 -i 4 -a 0 -x {8.0 1.0 4 ------- null}
h -t 0.514 -s 8 -d 11 -p cbr -e 500 -c 0 -i 14 -a 0 -x {8.0 1.0 14 ------- null}
- -t 0.514208 -s 8 -d 11 -p cbr -e 500 -c 0 -i 2 -a 0 -x {8.0 1.0 2 ------- null}
h -t 0.514208 -s 8 -d 11 -p cbr -e 500 -c 0 -i 2 -a 0 -x {8.0 1.0 -1 ------- null}
+ -t 0.515 -s 8 -d 11 -p cbr -e 500 -c 0 -i 5 -a 0 -x {8.0 1.0 5 ------- null}
h -t 0.515 -s 8 -d 11 -p cbr -e 500 -c 0 -i 15 -a 0 -x {8.0 1.0 15 ------- null}
+ -t 0.516 -s 8 -d 11 -p cbr -e 500 -c 0 -i 6 -a 0 -x {8.0 1.0 6 ------- null}
h -t 0.516 -s 8 -d 11 -p cbr -e 500 -c 0 -i 16 -a 0 -x {8.0 1.0 16 ------- null}
- -t 0.516312 -s 8 -d 11 -p cbr -e 500 -c 0 -i 3 -a 0 -x {8.0 1.0 3 ------- null}
h -t 0.516312 -s 8 -d 11 -p cbr -e 500 -c 0 -i 3 -a 0 -x {8.0 1.0 -1 ------- null}
+ -t 0.517 -s 8 -d 11 -p cbr -e 500 -c 0 -i 7 -a 0 -x {8.0 1.0 7 ------- null}
h -t 0.517 -s 8 -d 11 -p cbr -e 500 -c 0 -i 17 -a 0 -x {8.0 1.0 17 ------- null}
+ -t 0.518 -s 8 -d 11 -p cbr -e 500 -c 0 -i 8 -a 0 -x {8.0 1.0 8 ------- null}
h -t 0.518 -s 8 -d 11 -p cbr -e 500 -c 0 -i 18 -a 0 -x {8.0 1.0 18 ------- null}
- -t 0.518416 -s 8 -d 11 -p cbr -e 500 -c 0 -i 4 -a 0 -x {8.0 1.0 4 ------- null}
h -t 0.518416 -s 8 -d 11 -p cbr -e 500 -c 0 -i 4 -a 0 -x {8.0 1.0 -1 ------- null}
+ -t 0.519 -s 8 -d 11 -p cbr -e 500 -c 0 -i 9 -a 0 -x {8.0 1.0 9 ------- null}
h -t 0.519 -s 8 -d 11 -p cbr -e 500 -c 0 -i 19 -a 0 -x {8.0 1.0 19 ------- null}
+ -t 0.52 -s 8 -d 11 -p cbr -e 500 -c 0 -i 10 -a 0 -x {8.0 1.0 10 ------- null}
h -t 0.52 -s 8 -d 11 -p cbr -e 500 -c 0 -i 20 -a 0 -x {8.0 1.0 20 ------- null}
- -t 0.52052 -s 8 -d 11 -p cbr -e 500 -c 0 -i 5 -a 0 -x {8.0 1.0 5 ------- null}
h -t 0.52052 -s 8 -d 11 -p cbr -e 500 -c 0 -i 5 -a 0 -x {8.0 1.0 -1 ------- null}
+ -t 0.521 -s 8 -d 11 -p cbr -e 500 -c 0 -i 11 -a 0 -x {8.0 1.0 11 ------- null}
h -t 0.521 -s 8 -d 11 -p cbr -e 500 -c 0 -i 21 -a 0 -x {8.0 1.0 21 ------- null}
+ -t 0.522 -s 8 -d 11 -p cbr -e 500 -c 0 -i 12 -a 0 -x {8.0 1.0 12 ------- null}
h -t 0.522 -s 8 -d 11 -p cbr -e 500 -c 0 -i 22 -a 0 -x {8.0 1.0 22 ------- null}
r -t 0.52206 -s 11 -d 5 -p cbr -e 500 -c 0 -i 0 -a 0 -x {8.0 1.0 0 ------- null}
+ -t 0.52206 -s 5 -d 4 -p cbr -e 500 -c 0 -i 0 -a 0 -x {8.0 1.0 0 ------- null}
- -t 0.52206 -s 5 -d 4 -p cbr -e 500 -c 0 -i 0 -a 0 -x {8.0 1.0 0 ------- null}
h -t 0.52206 -s 5 -d 4 -p cbr -e 500 -c 0 -i 0 -a 0 -x {8.0 1.0 -1 ------- null}
- -t 0.522624 -s 8 -d 11 -p cbr -e 500 -c 0 -i 6 -a 0 -x {8.0 1.0 6 ------- null}
h -t 0.522624 -s 8 -d 11 -p cbr -e 500 -c 0 -i 6 -a 0 -x {8.0 1.0 -1 ------- null}
+ -t 0.523 -s 8 -d 11 -p cbr -e 500 -c 0 -i 13 -a 0 -x {8.0 1.0 13 ------- null}
h -t 0.523 -s 8 -d 11 -p cbr -e 500 -c 0 -i 23 -a 0 -x {8.0 1.0 23 ------- null}
+ -t 0.524 -s 8 -d 11 -p cbr -e 500 -c 0 -i 14 -a 0 -x {8.0 1.0 14 ------- null}
h -t 0.524 -s 8 -d 11 -p cbr -e 500 -c 0 -i 24 -a 0 -x {8.0 1.0 24 ------- null}
r -t 0.524164 -s 11 -d 5 -p cbr -e 500 -c 0 -i 1 -a 0 -x {8.0 1.0 1 ------- null}
+ -t 0.524164 -s 5 -d 4 -p cbr -e 500 -c 0 -i 1 -a 0 -x {8.0 1.0 1 ------- null}
- -t 0.524728 -s 8 -d 11 -p cbr -e 500 -c 0 -i 7 -a 0 -x {8.0 1.0 7 ------- null}
h -t 0.524728 -s 8 -d 11 -p cbr -e 500 -c 0 -i 7 -a 0 -x {8.0 1.0 -1 ------- null}
+ -t 0.525 -s 8 -d 11 -p cbr -e 500 -c 0 -i 15 -a 0 -x {8.0 1.0 15 ------- null}
h -t 0.525 -s 8 -d 11 -p cbr -e 500 -c 0 -i 25 -a 0 -x {8.0 1.0 25 ------- null}
+ -t 0.526 -s 8 -d 11 -p cbr -e 500 -c 0 -i 16 -a 0 -x {8.0 1.0 16 ------- null}
h -t 0.526 -s 8 -d 11 -p cbr -e 500 -c 0 -i 26 -a 0 -x {8.0 1.0 26 ------- null}
- -t 0.52606 -s 5 -d 4 -p cbr -e 500 -c 0 -i 1 -a 0 -x {8.0 1.0 1 ------- null}
h -t 0.52606 -s 5 -d 4 -p cbr -e 500 -c 0 -i 1 -a 0 -x {8.0 1.0 -1 ------- null}
r -t 0.526268 -s 11 -d 5 -p cbr -e 500 -c 0 -i 2 -a 0 -x {8.0 1.0 2 ------- null}
+ -t 0.526268 -s 5 -d 4 -p cbr -e 500 -c 0 -i 2 -a 0 -x {8.0 1.0 2 ------- null}
- -t 0.526832 -s 8 -d 11 -p cbr -e 500 -c 0 -i 8 -a 0 -x {8.0 1.0 8 ------- null}
h -t 0.526832 -s 8 -d 11 -p cbr -e 500 -c 0 -i 8 -a 0 -x {8.0 1.0 -1 ------- null}
+ -t 0.527 -s 8 -d 11 -p cbr -e 500 -c 0 -i 17 -a 0 -x {8.0 1.0 17 ------- null}
h -t 0.527 -s 8 -d 11 -p cbr -e 500 -c 0 -i 27 -a 0 -x {8.0 1.0 27 ------- null}
+ -t 0.528 -s 8 -d 11 -p cbr -e 500 -c 0 -i 18 -a 0 -x {8.0 1.0 18 ------- null}
h -t 0.528 -s 8 -d 11 -p cbr -e 500 -c 0 -i 28 -a 0 -x {8.0 1.0 28 ------- null}
r -t 0.528372 -s 11 -d 5 -p cbr -e 500 -c 0 -i 3 -a 0 -x {8.0 1.0 3 ------- null}
+ -t 0.528372 -s 5 -d 4 -p cbr -e 500 -c 0 -i 3 -a 0 -x {8.0 1.0 3 ------- null}
- -t 0.528936 -s 8 -d 11 -p cbr -e 500 -c 0 -i 9 -a 0 -x {8.0 1.0 9 ------- null}
h -t 0.528936 -s 8 -d 11 -p cbr -e 500 -c 0 -i 9 -a 0 -x {8.0 1.0 -1 ------- null}
+ -t 0.529 -s 8 -d 11 -p cbr -e 500 -c 0 -i 19 -a 0 -x {8.0 1.0 19 ------- null}
h -t 0.529 -s 8 -d 11 -p cbr -e 500 -c 0 -i 29 -a 0 -x {8.0 1.0 29 ------- null}
+ -t 0.53 -s 8 -d 11 -p cbr -e 500 -c 0 -i 20 -a 0 -x {8.0 1.0 20 ------- null}
h -t 0.53 -s 8 -d 11 -p cbr -e 500 -c 0 -i 30 -a 0 -x {8.0 1.0 30 ------- null}
- -t 0.53006 -s 5 -d 4 -p cbr -e 500 -c 0 -i 2 -a 0 -x {8.0 1.0 2 ------- null}
h -t 0.53006 -s 5 -d 4 -p cbr -e 500 -c 0 -i 2 -a 0 -x {8.0 1.0 -1 ------- null}
r -t 0.530476 -s 11 -d 5 -p cbr -e 500 -c 0 -i 4 -a 0 -x {8.0 1.0 4 ------- null}
+ -t 0.530476 -s 5 -d 4 -p cbr -e 500 -c 0 -i 4 -a 0 -x {8.0 1.0 4 ------- null}
+ -t 0.531 -s 8 -d 11 -p cbr -e 500 -c 0 -i 21 -a 0 -x {8.0 1.0 21 ------- null}
h -t 0.531 -s 8 -d 11 -p cbr -e 500 -c 0 -i 31 -a 0 -x {8.0 1.0 31 ------- null}
- -t 0.53104 -s 8 -d 11 -p cbr -e 500 -c 0 -i 10 -a 0 -x {8.0 1.0 10 ------- null}
h -t 0.53104 -s 8 -d 11 -p cbr -e 500 -c 0 -i 10 -a 0 -x {8.0 1.0 -1 ------- null}
+ -t 0.532 -s 8 -d 11 -p cbr -e 500 -c 0 -i 22 -a 0 -x {8.0 1.0 22 ------- null}
h -t 0.532 -s 8 -d 11 -p cbr -e 500 -c 0 -i 32 -a 0 -x {8.0 1.0 32 ------- null}
r -t 0.53258 -s 11 -d 5 -p cbr -e 500 -c 0 -i 5 -a 0 -x {8.0 1.0 5 ------- null}
+ -t 0.53258 -s 5 -d 4 -p cbr -e 500 -c 0 -i 5 -a 0 -x {8.0 1.0 5 ------- null}
+ -t 0.533 -s 8 -d 11 -p cbr -e 500 -c 0 -i 23 -a 0 -x {8.0 1.0 23 ------- null}
h -t 0.533 -s 8 -d 11 -p cbr -e 500 -c 0 -i 33 -a 0 -x {8.0 1.0 33 ------- null}
- -t 0.533144 -s 8 -d 11 -p cbr -e 500 -c 0 -i 11 -a 0 -x {8.0 1.0 11 ------- null}
h -t 0.533144 -s 8 -d 11 -p cbr -e 500 -c 0 -i 11 -a 0 -x {8.0 1.0 -1 ------- null}
+ -t 0.534 -s 8 -d 11 -p cbr -e 500 -c 0 -i 24 -a 0 -x {8.0 1.0 24 ------- null}
h -t 0.534 -s 8 -d 11 -p cbr -e 500 -c 0 -i 34 -a 0 -x {8.0 1.0 34 ------- null}
- -t 0.53406 -s 5 -d 4 -p cbr -e 500 -c 0 -i 3 -a 0 -x {8.0 1.0 3 ------- null}
h -t 0.53406 -s 5 -d 4 -p cbr -e 500 -c 0 -i 3 -a 0 -x {8.0 1.0 -1 ------- null}
r -t 0.534684 -s 11 -d 5 -p cbr -e 500 -c 0 -i 6 -a 0 -x {8.0 1.0 6 ------- null}
+ -t 0.534684 -s 5 -d 4 -p cbr -e 500 -c 0 -i 6 -a 0 -x {8.0 1.0 6 ------- null}
+ -t 0.535 -s 8 -d 11 -p cbr -e 500 -c 0 -i 25 -a 0 -x {8.0 1.0 25 ------- null}
h -t 0.535 -s 8 -d 11 -p cbr -e 500 -c 0 -i 35 -a 0 -x {8.0 1.0 35 ------- null}
- -t 0.535248 -s 8 -d 11 -p cbr -e 500 -c 0 -i 12 -a 0 -x {8.0 1.0 12 ------- null}
h -t 0.535248 -s 8 -d 11 -p cbr -e 500 -c 0 -i 12 -a 0 -x {8.0 1.0 -1 ------- null}
+ -t 0.536 -s 8 -d 11 -p cbr -e 500 -c 0 -i 26 -a 0 -x {8.0 1.0 26 ------- null}
h -t 0.536 -s 8 -d 11 -p cbr -e 500 -c 0 -i 36 -a 0 -x {8.0 1.0 36 ------- null}
r -t 0.536788 -s 11 -d 5 -p cbr -e 500 -c 0 -i 7 -a 0 -x {8.0 1.0 7 ------- null}
+ -t 0.536788 -s 5 -d 4 -p cbr -e 500 -c 0 -i 7 -a 0 -x {8.0 1.0 7 ------- null}
+ -t 0.537 -s 8 -d 11 -p cbr -e 500 -c 0 -i 27 -a 0 -x {8.0 1.0 27 ------- null}
h -t 0.537 -s 8 -d 11 -p cbr -e 500 -c 0 -i 37 -a 0 -x {8.0 1.0 37 ------- null}
- -t 0.537352 -s 8 -d 11 -p cbr -e 500 -c 0 -i 13 -a 0 -x {8.0 1.0 13 ------- null}
h -t 0.537352 -s 8 -d 11 -p cbr -e 500 -c 0 -i 13 -a 0 -x {8.0 1.0 -1 ------- null}
+ -t 0.538 -s 8 -d 11 -p cbr -e 500 -c 0 -i 28 -a 0 -x {8.0 1.0 28 ------- null}
h -t 0.538 -s 8 -d 11 -p cbr -e 500 -c 0 -i 38 -a 0 -x {8.0 1.0 38 ------- null}
- -t 0.53806 -s 5 -d 4 -p cbr -e 500 -c 0 -i 4 -a 0 -x {8.0 1.0 4 ------- null}
h -t 0.53806 -s 5 -d 4 -p cbr -e 500 -c 0 -i 4 -a 0 -x {8.0 1.0 -1 ------- null}
r -t 0.538892 -s 11 -d 5 -p cbr -e 500 -c 0 -i 8 -a 0 -x {8.0 1.0 8 ------- null}
+ -t 0.538892 -s 5 -d 4 -p cbr -e 500 -c 0 -i 8 -a 0 -x {8.0 1.0 8 ------- null}
+ -t 0.539 -s 8 -d 11 -p cbr -e 500 -c 0 -i 29 -a 0 -x {8.0 1.0 29 ------- null}
h -t 0.539 -s 8 -d 11 -p cbr -e 500 -c 0 -i 39 -a 0 -x {8.0 1.0 39 ------- null}
- -t 0.539456 -s 8 -d 11 -p cbr -e 500 -c 0 -i 14 -a 0 -x {8.0 1.0 14 ------- null}
h -t 0.539456 -s 8 -d 11 -p cbr -e 500 -c 0 -i 14 -a 0 -x {8.0 1.0 -1 ------- null}
+ -t 0.54 -s 8 -d 11 -p cbr -e 500 -c 0 -i 30 -a 0 -x {8.0 1.0 30 ------- null}
h -t 0.54 -s 8 -d 11 -p cbr -e 500 -c 0 -i 40 -a 0 -x {8.0 1.0 40 ------- null}
r -t 0.540996 -s 11 -d 5 -p cbr -e 500 -c 0 -i 9 -a 0 -x {8.0 1.0 9 ------- null}
+ -t 0.540996 -s 5 -d 4 -p cbr -e 500 -c 0 -i 9 -a 0 -x {8.0 1.0 9 ------- null}
+ -t 0.541 -s 8 -d 11 -p cbr -e 500 -c 0 -i 31 -a 0 -x {8.0 1.0 31 ------- null}
h -t 0.541 -s 8 -d 11 -p cbr -e 500 -c 0 -i 41 -a 0 -x {8.0 1.0 41 ------- null}
- -t 0.54156 -s 8 -d 11 -p cbr -e 500 -c 0 -i 15 -a 0 -x {8.0 1.0 15 ------- null}
h -t 0.54156 -s 8 -d 11 -p cbr -e 500 -c 0 -i 15 -a 0 -x {8.0 1.0 -1 ------- null}
+ -t 0.542 -s 8 -d 11 -p cbr -e 500 -c 0 -i 32 -a 0 -x {8.0 1.0 32 ------- null}
h -t 0.542 -s 8 -d 11 -p cbr -e 500 -c 0 -i 42 -a 0 -x {8.0 1.0 42 ------- null}
- -t 0.54206 -s 5 -d 4 -p cbr -e 500 -c 0 -i 5 -a 0 -x {8.0 1.0 5 ------- null}
h -t 0.54206 -s 5 -d 4 -p cbr -e 500 -c 0 -i 5 -a 0 -x {8.0 1.0 -1 ------- null}
+ -t 0.543 -s 8 -d 11 -p cbr -e 500 -c 0 -i 33 -a 0 -x {8.0 1.0 33 ------- null}
h -t 0.543 -s 8 -d 11 -p cbr -e 500 -c 0 -i 43 -a 0 -x {8.0 1.0 43 ------- null}
r -t 0.5431 -s 11 -d 5 -p cbr -e 500 -c 0 -i 10 -a 0 -x {8.0 1.0 10 ------- null}
+ -t 0.5431 -s 5 -d 4 -p cbr -e 500 -c 0 -i 10 -a 0 -x {8.0 1.0 10 ------- null}
- -t 0.543664 -s 8 -d 11 -p cbr -e 500 -c 0 -i 16 -a 0 -x {8.0 1.0 16 ------- null}
h -t 0.543664 -s 8 -d 11 -p cbr -e 500 -c 0 -i 16 -a 0 -x {8.0 1.0 -1 ------- null}
+ -t 0.544 -s 8 -d 11 -p cbr -e 500 -c 0 -i 34 -a 0 -x {8.0 1.0 34 ------- null}
h -t 0.544 -s 8 -d 11 -p cbr -e 500 -c 0 -i 44 -a 0 -x {8.0 1.0 44 ------- null}
+ -t 0.545 -s 8 -d 11 -p cbr -e 500 -c 0 -i 35 -a 0 -x {8.0 1.0 35 ------- null}
h -t 0.545 -s 8 -d 11 -p cbr -e 500 -c 0 -i 45 -a 0 -x {8.0 1.0 45 ------- null}
r -t 0.545204 -s 11 -d 5 -p cbr -e 500 -c 0 -i 11 -a 0 -x {8.0 1.0 11 ------- null}
+ -t 0.545204 -s 5 -d 4 -p cbr -e 500 -c 0 -i 11 -a 0 -x {8.0 1.0 11 ------- null}
- -t 0.545768 -s 8 -d 11 -p cbr -e 500 -c 0 -i 17 -a 0 -x {8.0 1.0 17 ------- null}
h -t 0.545768 -s 8 -d 11 -p cbr -e 500 -c 0 -i 17 -a 0 -x {8.0 1.0 -1 ------- null}
+ -t 0.546 -s 8 -d 11 -p cbr -e 500 -c 0 -i 36 -a 0 -x {8.0 1.0 36 ------- null}
h -t 0.546 -s 8 -d 11 -p cbr -e 500 -c 0 -i 46 -a 0 -x {8.0 1.0 46 ------- null}
- -t 0.54606 -s 5 -d 4 -p cbr -e 500 -c 0 -i 6 -a 0 -x {8.0 1.0 6 ------- null}
h -t 0.54606 -s 5 -d 4 -p cbr -e 500 -c 0 -i 6 -a 0 -x {8.0 1.0 -1 ------- null}
+ -t 0.547 -s 8 -d 11 -p cbr -e 500 -c 0 -i 37 -a 0 -x {8.0 1.0 37 ------- null}
h -t 0.547 -s 8 -d 11 -p cbr -e 500 -c 0 -i 47 -a 0 -x {8.0 1.0 47 ------- null}
r -t 0.547308 -s 11 -d 5 -p cbr -e 500 -c 0 -i 12 -a 0 -x {8.0 1.0 12 ------- null}
+ -t 0.547308 -s 5 -d 4 -p cbr -e 500 -c 0 -i 12 -a 0 -x {8.0 1.0 12 ------- null}
- -t 0.547872 -s 8 -d 11 -p cbr -e 500 -c 0 -i 18 -a 0 -x {8.0 1.0 18 ------- null}
h -t 0.547872 -s 8 -d 11 -p cbr -e 500 -c 0 -i 18 -a 0 -x {8.0 1.0 -1 ------- null}
+ -t 0.548 -s 8 -d 11 -p cbr -e 500 -c 0 -i 38 -a 0 -x {8.0 1.0 38 ------- null}
h -t 0.548 -s 8 -d 11 -p cbr -e 500 -c 0 -i 48 -a 0 -x {8.0 1.0 48 ------- null}
+ -t 0.549 -s 8 -d 11 -p cbr -e 500 -c 0 -i 39 -a 0 -x {8.0 1.0 39 ------- null}
h -t 0.549 -s 8 -d 11 -p cbr -e 500 -c 0 -i 49 -a 0 -x {8.0 1.0 49 ------- null}
r -t 0.549412 -s 11 -d 5 -p cbr -e 500 -c 0 -i 13 -a 0 -x {8.0 1.0 13 ------- null}
+ -t 0.549412 -s 5 -d 4 -p cbr -e 500 -c 0 -i 13 -a 0 -x {8.0 1.0 13 ------- null}
- -t 0.549976 -s 8 -d 11 -p cbr -e 500 -c 0 -i 19 -a 0 -x {8.0 1.0 19 ------- null}
h -t 0.549976 -s 8 -d 11 -p cbr -e 500 -c 0 -i 19 -a 0 -x {8.0 1.0 -1 ------- null}
+ -t 0.55 -s 8 -d 11 -p cbr -e 500 -c 0 -i 40 -a 0 -x {8.0 1.0 40 ------- null}
h -t 0.55 -s 8 -d 11 -p cbr -e 500 -c 0 -i 50 -a 0 -x {8.0 1.0 50 ------- null}
- -t 0.55006 -s 5 -d 4 -p cbr -e 500 -c 0 -i 7 -a 0 -x {8.0 1.0 7 ------- null}
h -t 0.55006 -s 5 -d 4 -p cbr -e 500 -c 0 -i 7 -a 0 -x {8.0 1.0 -1 ------- null}
+ -t 0.551 -s 8 -d 11 -p cbr -e 500 -c 0 -i 41 -a 0 -x {8.0 1.0 41 ------- null}
h -t 0.551 -s 8 -d 11 -p cbr -e 500 -c 0 -i 51 -a 0 -x {8.0 1.0 51 ------- null}
r -t 0.551516 -s 11 -d 5 -p cbr -e 500 -c 0 -i 14 -a 0 -x {8.0 1.0 14 ------- null}
+ -t 0.551516 -s 5 -d 4 -p cbr -e 500 -c 0 -i 14 -a 0 -x {8.0 1.0 14 ------- null}
+ -t 0.552 -s 8 -d 11 -p cbr -e 500 -c 0 -i 42 -a 0 -x {8.0 1.0 42 ------- null}
h -t 0.552 -s 8 -d 11 -p cbr -e 500 -c 0 -i 52 -a 0 -x {8.0 1.0 52 ------- null}
- -t 0.55208 -s 8 -d 11 -p cbr -e 500 -c 0 -i 20 -a 0 -x {8.0 1.0 20 ------- null}
h -t 0.55208 -s 8 -d 11 -p cbr -e 500 -c 0 -i 20 -a 0 -x {8.0 1.0 -1 ------- null}
+ -t 0.553 -s 8 -d 11 -p cbr -e 500 -c 0 -i 43 -a 0 -x {8.0 1.0 43 ------- null}
h -t 0.553 -s 8 -d 11 -p cbr -e 500 -c 0 -i 53 -a 0 -x {8.0 1.0 53 ------- null}
r -t 0.55362 -s 11 -d 5 -p cbr -e 500 -c 0 -i 15 -a 0 -x {8.0 1.0 15 ------- null}
+ -t 0.55362 -s 5 -d 4 -p cbr -e 500 -c 0 -i 15 -a 0 -x {8.0 1.0 15 ------- null}
+ -t 0.554 -s 8 -d 11 -p cbr -e 500 -c 0 -i 44 -a 0 -x {8.0 1.0 44 ------- null}
h -t 0.554 -s 8 -d 11 -p cbr -e 500 -c 0 -i 54 -a 0 -x {8.0 1.0 54 ------- null}
- -t 0.55406 -s 5 -d 4 -p cbr -e 500 -c 0 -i 8 -a 0 -x {8.0 1.0 8 ------- null}
h -t 0.55406 -s 5 -d 4 -p cbr -e 500 -c 0 -i 8 -a 0 -x {8.0 1.0 -1 ------- null}
- -t 0.554184 -s 8 -d 11 -p cbr -e 500 -c 0 -i 21 -a 0 -x {8.0 1.0 21 ------- null}
h -t 0.554184 -s 8 -d 11 -p cbr -e 500 -c 0 -i 21 -a 0 -x {8.0 1.0 -1 ------- null}
+ -t 0.555 -s 8 -d 11 -p cbr -e 500 -c 0 -i 45 -a 0 -x {8.0 1.0 45 ------- null}
h -t 0.555 -s 8 -d 11 -p cbr -e 500 -c 0 -i 55 -a 0 -x {8.0 1.0 55 ------- null}
r -t 0.555724 -s 11 -d 5 -p cbr -e 500 -c 0 -i 16 -a 0 -x {8.0 1.0 16 ------- null}
+ -t 0.555724 -s 5 -d 4 -p cbr -e 500 -c 0 -i 16 -a 0 -x {8.0 1.0 16 ------- null}
+ -t 0.556 -s 8 -d 11 -p cbr -e 500 -c 0 -i 46 -a 0 -x {8.0 1.0 46 ------- null}
h -t 0.556 -s 8 -d 11 -p cbr -e 500 -c 0 -i 56 -a 0 -x {8.0 1.0 56 ------- null}
r -t 0.55606 -s 5 -d 4 -p cbr -e 500 -c 0 -i 0 -a 0 -x {8.0 1.0 0 ------- null}
h -t 0.55606 -s 4 -d 10 -p cbr -e 500 -c 0 -i 0 -a 0 -x {8.0 1.0 0 ------- null}
- -t 0.556288 -s 8 -d 11 -p cbr -e 500 -c 0 -i 22 -a 0 -x {8.0 1.0 22 ------- null}
h -t 0.556288 -s 8 -d 11 -p cbr -e 500 -c 0 -i 22 -a 0 -x {8.0 1.0 -1 ------- null}
+ -t 0.557 -s 8 -d 11 -p cbr -e 500 -c 0 -i 47 -a 0 -x {8.0 1.0 47 ------- null}
h -t 0.557 -s 8 -d 11 -p cbr -e 500 -c 0 -i 57 -a 0 -x {8.0 1.0 57 ------- null}
r -t 0.557828 -s 11 -d 5 -p cbr -e 500 -c 0 -i 17 -a 0 -x {8.0 1.0 17 ------- null}
+ -t 0.557828 -s 5 -d 4 -p cbr -e 500 -c 0 -i 17 -a 0 -x {8.0 1.0 17 ------- null}
+ -t 0.558 -s 8 -d 11 -p cbr -e 500 -c 0 -i 48 -a 0 -x {8.0 1.0 48 ------- null}
h -t 0.558 -s 8 -d 11 -p cbr -e 500 -c 0 -i 58 -a 0 -x {8.0 1.0 58 ------- null}
- -t 0.55806 -s 5 -d 4 -p cbr -e 500 -c 0 -i 9 -a 0 -x {8.0 1.0 9 ------- null}
h -t 0.55806 -s 5 -d 4 -p cbr -e 500 -c 0 -i 9 -a 0 -x {8.0 1.0 -1 ------- null}
- -t 0.558392 -s 8 -d 11 -p cbr -e 500 -c 0 -i 23 -a 0 -x {8.0 1.0 23 ------- null}
h -t 0.558392 -s 8 -d 11 -p cbr -e 500 -c 0 -i 23 -a 0 -x {8.0 1.0 -1 ------- null}
+ -t 0.559 -s 8 -d 11 -p cbr -e 500 -c 0 -i 49 -a 0 -x {8.0 1.0 49 ------- null}
h -t 0.559 -s 8 -d 11 -p cbr -e 500 -c 0 -i 59 -a 0 -x {8.0 1.0 59 ------- null}
r -t 0.559932 -s 11 -d 5 -p cbr -e 500 -c 0 -i 18 -a 0 -x {8.0 1.0 18 ------- null}
+ -t 0.559932 -s 5 -d 4 -p cbr -e 500 -c 0 -i 18 -a 0 -x {8.0 1.0 18 ------- null}
+ -t 0.56 -s 8 -d 11 -p cbr -e 500 -c 0 -i 50 -a 0 -x {8.0 1.0 50 ------- null}
h -t 0.56 -s 8 -d 11 -p cbr -e 500 -c 0 -i 60 -a 0 -x {8.0 1.0 60 ------- null}
r -t 0.56006 -s 5 -d 4 -p cbr -e 500 -c 0 -i 1 -a 0 -x {8.0 1.0 1 ------- null}
h -t 0.56006 -s 4 -d 10 -p cbr -e 500 -c 0 -i 1 -a 0 -x {8.0 1.0 1 ------- null}
- -t 0.560496 -s 8 -d 11 -p cbr -e 500 -c 0 -i 24 -a 0 -x {8.0 1.0 24 ------- null}
h -t 0.560496 -s 8 -d 11 -p cbr -e 500 -c 0 -i 24 -a 0 -x {8.0 1.0 -1 ------- null}
+ -t 0.561 -s 8 -d 11 -p cbr -e 500 -c 0 -i 51 -a 0 -x {8.0 1.0 51 ------- null}
h -t 0.561 -s 8 -d 11 -p cbr -e 500 -c 0 -i 61 -a 0 -x {8.0 1.0 61 ------- null}
+ -t 0.562 -s 8 -d 11 -p cbr -e 500 -c 0 -i 52 -a 0 -x {8.0 1.0 52 ------- null}
h -t 0.562 -s 8 -d 11 -p cbr -e 500 -c 0 -i 62 -a 0 -x {8.0 1.0 62 ------- null}
r -t 0.562036 -s 11 -d 5 -p cbr -e 500 -c 0 -i 19 -a 0 -x {8.0 1.0 19 ------- null}
+ -t 0.562036 -s 5 -d 4 -p cbr -e 500 -c 0 -i 19 -a 0 -x {8.0 1.0 19 ------- null}
- -t 0.56206 -s 5 -d 4 -p cbr -e 500 -c 0 -i 10 -a 0 -x {8.0 1.0 10 ------- null}
h -t 0.56206 -s 5 -d 4 -p cbr -e 500 -c 0 -i 10 -a 0 -x {8.0 1.0 -1 ------- null}
- -t 0.5626 -s 8 -d 11 -p cbr -e 500 -c 0 -i 25 -a 0 -x {8.0 1.0 25 ------- null}
h -t 0.5626 -s 8 -d 11 -p cbr -e 500 -c 0 -i 25 -a 0 -x {8.0 1.0 -1 ------- null}
+ -t 0.563 -s 8 -d 11 -p cbr -e 500 -c 0 -i 53 -a 0 -x {8.0 1.0 53 ------- null}
h -t 0.563 -s 8 -d 11 -p cbr -e 500 -c 0 -i 63 -a 0 -x {8.0 1.0 63 ------- null}
+ -t 0.564 -s 8 -d 11 -p cbr -e 500 -c 0 -i 54 -a 0 -x {8.0 1.0 54 ------- null}
h -t 0.564 -s 8 -d 11 -p cbr -e 500 -c 0 -i 64 -a 0 -x {8.0 1.0 64 ------- null}
r -t 0.56406 -s 5 -d 4 -p cbr -e 500 -c 0 -i 2 -a 0 -x {8.0 1.0 2 ------- null}
h -t 0.56406 -s 4 -d 10 -p cbr -e 500 -c 0 -i 2 -a 0 -x {8.0 1.0 2 ------- null}
r -t 0.56414 -s 11 -d 5 -p cbr -e 500 -c 0 -i 20 -a 0 -x {8.0 1.0 20 ------- null}
+ -t 0.56414 -s 5 -d 4 -p cbr -e 500 -c 0 -i 20 -a 0 -x {8.0 1.0 20 ------- null}
- -t 0.564704 -s 8 -d 11 -p cbr -e 500 -c 0 -i 26 -a 0 -x {8.0 1.0 26 ------- null}
h -t 0.564704 -s 8 -d 11 -p cbr -e 500 -c 0 -i 26 -a 0 -x {8.0 1.0 -1 ------- null}
+ -t 0.565 -s 8 -d 11 -p cbr -e 500 -c 0 -i 55 -a 0 -x {8.0 1.0 55 ------- null}
h -t 0.565 -s 8 -d 11 -p cbr -e 500 -c 0 -i 65 -a 0 -x {8.0 1.0 65 ------- null}
+ -t 0.566 -s 8 -d 11 -p cbr -e 500 -c 0 -i 56 -a 0 -x {8.0 1.0 56 ------- null}
h -t 0.566 -s 8 -d 11 -p cbr -e 500 -c 0 -i 66 -a 0 -x {8.0 1.0 66 ------- null}
+ -t 0.56606 -s 4 -d 10 -p cbr -e 500 -c 0 -i 0 -a 0 -x {8.0 1.0 0 ------- null}
- -t 0.56606 -s 4 -d 10 -p cbr -e 500 -c 0 -i 0 -a 0 -x {8.0 1.0 0 ------- null}
h -t 0.56606 -s 4 -d 10 -p cbr -e 500 -c 0 -i 0 -a 0 -x {8.0 1.0 -1 ------- null}
- -t 0.56606 -s 5 -d 4 -p cbr -e 500 -c 0 -i 11 -a 0 -x {8.0 1.0 11 ------- null}
h -t 0.56606 -s 5 -d 4 -p cbr -e 500 -c 0 -i 11 -a 0 -x {8.0 1.0 -1 ------- null}
r -t 0.566244 -s 11 -d 5 -p cbr -e 500 -c 0 -i 21 -a 0 -x {8.0 1.0 21 ------- null}
+ -t 0.566244 -s 5 -d 4 -p cbr -e 500 -c 0 -i 21 -a 0 -x {8.0 1.0 21 ------- null}
- -t 0.566808 -s 8 -d 11 -p cbr -e 500 -c 0 -i 27 -a 0 -x {8.0 1.0 27 ------- null}
h -t 0.566808 -s 8 -d 11 -p cbr -e 500 -c 0 -i 27 -a 0 -x {8.0 1.0 -1 ------- null}
+ -t 0.567 -s 8 -d 11 -p cbr -e 500 -c 0 -i 57 -a 0 -x {8.0 1.0 57 ------- null}
h -t 0.567 -s 8 -d 11 -p cbr -e 500 -c 0 -i 67 -a 0 -x {8.0 1.0 67 ------- null}
+ -t 0.568 -s 8 -d 11 -p cbr -e 500 -c 0 -i 58 -a 0 -x {8.0 1.0 58 ------- null}
h -t 0.568 -s 8 -d 11 -p cbr -e 500 -c 0 -i 68 -a 0 -x {8.0 1.0 68 ------- null}
r -t 0.56806 -s 5 -d 4 -p cbr -e 500 -c 0 -i 3 -a 0 -x {8.0 1.0 3 ------- null}
h -t 0.56806 -s 4 -d 10 -p cbr -e 500 -c 0 -i 3 -a 0 -x {8.0 1.0 3 ------- null}
r -t 0.568348 -s 11 -d 5 -p cbr -e 500 -c 0 -i 22 -a 0 -x {8.0 1.0 22 ------- null}
+ -t 0.568348 -s 5 -d 4 -p cbr -e 500 -c 0 -i 22 -a 0 -x {8.0 1.0 22 ------- null}
- -t 0.568912 -s 8 -d 11 -p cbr -e 500 -c 0 -i 28 -a 0 -x {8.0 1.0 28 ------- null}
h -t 0.568912 -s 8 -d 11 -p cbr -e 500 -c 0 -i 28 -a 0 -x {8.0 1.0 -1 ------- null}
+ -t 0.569 -s 8 -d 11 -p cbr -e 500 -c 0 -i 59 -a 0 -x {8.0 1.0 59 ------- null}
h -t 0.569 -s 8 -d 11 -p cbr -e 500 -c 0 -i 69 -a 0 -x {8.0 1.0 69 ------- null}
+ -t 0.57 -s 8 -d 11 -p cbr -e 500 -c 0 -i 60 -a 0 -x {8.0 1.0 60 ------- null}
h -t 0.57 -s 8 -d 11 -p cbr -e 500 -c 0 -i 70 -a 0 -x {8.0 1.0 70 ------- null}
+ -t 0.57006 -s 4 -d 10 -p cbr -e 500 -c 0 -i 1 -a 0 -x {8.0 1.0 1 ------- null}
- -t 0.57006 -s 4 -d 10 -p cbr -e 500 -c 0 -i 1 -a 0 -x {8.0 1.0 1 ------- null}
h -t 0.57006 -s 4 -d 10 -p cbr -e 500 -c 0 -i 1 -a 0 -x {8.0 1.0 -1 ------- null}
- -t 0.57006 -s 5 -d 4 -p cbr -e 500 -c 0 -i 12 -a 0 -x {8.0 1.0 12 ------- null}
h -t 0.57006 -s 5 -d 4 -p cbr -e 500 -c 0 -i 12 -a 0 -x {8.0 1.0 -1 ------- null}
r -t 0.570452 -s 11 -d 5 -p cbr -e 500 -c 0 -i 23 -a 0 -x {8.0 1.0 23 ------- null}
+ -t 0.570452 -s 5 -d 4 -p cbr -e 500 -c 0 -i 23 -a 0 -x {8.0 1.0 23 ------- null}
+ -t 0.571 -s 8 -d 11 -p cbr -e 500 -c 0 -i 61 -a 0 -x {8.0 1.0 61 ------- null}
h -t 0.571 -s 8 -d 11 -p cbr -e 500 -c 0 -i 71 -a 0 -x {8.0 1.0 71 ------- null}
- -t 0.571016 -s 8 -d 11 -p cbr -e 500 -c 0 -i 29 -a 0 -x {8.0 1.0 29 ------- null}
h -t 0.571016 -s 8 -d 11 -p cbr -e 500 -c 0 -i 29 -a 0 -x {8.0 1.0 -1 ------- null}
+ -t 0.572 -s 8 -d 11 -p cbr -e 500 -c 0 -i 62 -a 0 -x {8.0 1.0 62 ------- null}
h -t 0.572 -s 8 -d 11 -p cbr -e 500 -c 0 -i 72 -a 0 -x {8.0 1.0 72 ------- null}
r -t 0.57206 -s 5 -d 4 -p cbr -e 500 -c 0 -i 4 -a 0 -x {8.0 1.0 4 ------- null}
h -t 0.57206 -s 4 -d 10 -p cbr -e 500 -c 0 -i 4 -a 0 -x {8.0 1.0 4 ------- null}
r -t 0.572556 -s 11 -d 5 -p cbr -e 500 -c 0 -i 24 -a 0 -x {8.0 1.0 24 ------- null}
+ -t 0.572556 -s 5 -d 4 -p cbr -e 500 -c 0 -i 24 -a 0 -x {8.0 1.0 24 ------- null}
+ -t 0.573 -s 8 -d 11 -p cbr -e 500 -c 0 -i 63 -a 0 -x {8.0 1.0 63 ------- null}
h -t 0.573 -s 8 -d 11 -p cbr -e 500 -c 0 -i 73 -a 0 -x {8.0 1.0 73 ------- null}
- -t 0.57312 -s 8 -d 11 -p cbr -e 500 -c 0 -i 30 -a 0 -x {8.0 1.0 30 ------- null}
h -t 0.57312 -s 8 -d 11 -p cbr -e 500 -c 0 -i 30 -a 0 -x {8.0 1.0 -1 ------- null}
+ -t 0.574 -s 8 -d 11 -p cbr -e 500 -c 0 -i 64 -a 0 -x {8.0 1.0 64 ------- null}
h -t 0.574 -s 8 -d 11 -p cbr -e 500 -c 0 -i 74 -a 0 -x {8.0 1.0 74 ------- null}
+ -t 0.57406 -s 4 -d 10 -p cbr -e 500 -c 0 -i 2 -a 0 -x {8.0 1.0 2 ------- null}
- -t 0.57406 -s 4 -d 10 -p cbr -e 500 -c 0 -i 2 -a 0 -x {8.0 1.0 2 ------- null}
h -t 0.57406 -s 4 -d 10 -p cbr -e 500 -c 0 -i 2 -a 0 -x {8.0 1.0 -1 ------- null}
- -t 0.57406 -s 5 -d 4 -p cbr -e 500 -c 0 -i 13 -a 0 -x {8.0 1.0 13 ------- null}
h -t 0.57406 -s 5 -d 4 -p cbr -e 500 -c 0 -i 13 -a 0 -x {8.0 1.0 -1 ------- null}
r -t 0.57466 -s 11 -d 5 -p cbr -e 500 -c 0 -i 25 -a 0 -x {8.0 1.0 25 ------- null}
+ -t 0.57466 -s 5 -d 4 -p cbr -e 500 -c 0 -i 25 -a 0 -x {8.0 1.0 25 ------- null}
+ -t 0.575 -s 8 -d 11 -p cbr -e 500 -c 0 -i 65 -a 0 -x {8.0 1.0 65 ------- null}
h -t 0.575 -s 8 -d 11 -p cbr -e 500 -c 0 -i 75 -a 0 -x {8.0 1.0 75 ------- null}
- -t 0.575224 -s 8 -d 11 -p cbr -e 500 -c 0 -i 31 -a 0 -x {8.0 1.0 31 ------- null}
h -t 0.575224 -s 8 -d 11 -p cbr -e 500 -c 0 -i 31 -a 0 -x {8.0 1.0 -1 ------- null}
+ -t 0.576 -s 8 -d 11 -p cbr -e 500 -c 0 -i 66 -a 0 -x {8.0 1.0 66 ------- null}
h -t 0.576 -s 8 -d 11 -p cbr -e 500 -c 0 -i 76 -a 0 -x {8.0 1.0 76 ------- null}
r -t 0.57606 -s 5 -d 4 -p cbr -e 500 -c 0 -i 5 -a 0 -x {8.0 1.0 5 ------- null}
h -t 0.57606 -s 4 -d 10 -p cbr -e 500 -c 0 -i 5 -a 0 -x {8.0 1.0 5 ------- null}
r -t 0.576764 -s 11 -d 5 -p cbr -e 500 -c 0 -i 26 -a 0 -x {8.0 1.0 26 ------- null}
+ -t 0.576764 -s 5 -d 4 -p cbr -e 500 -c 0 -i 26 -a 0 -x {8.0 1.0 26 ------- null}
+ -t 0.577 -s 8 -d 11 -p cbr -e 500 -c 0 -i 67 -a 0 -x {8.0 1.0 67 ------- null}
h -t 0.577 -s 8 -d 11 -p cbr -e 500 -c 0 -i 77 -a 0 -x {8.0 1.0 77 ------- null}
- -t 0.577328 -s 8 -d 11 -p cbr -e 500 -c 0 -i 32 -a 0 -x {8.0 1.0 32 ------- null}
h -t 0.577328 -s 8 -d 11 -p cbr -e 500 -c 0 -i 32 -a 0 -x {8.0 1.0 -1 ------- null}
+ -t 0.578 -s 8 -d 11 -p cbr -e 500 -c 0 -i 68 -a 0 -x {8.0 1.0 68 ------- null}
h -t 0.578 -s 8 -d 11 -p cbr -e 500 -c 0 -i 78 -a 0 -x {8.0 1.0 78 ------- null}
+ -t 0.57806 -s 4 -d 10 -p cbr -e 500 -c 0 -i 3 -a 0 -x {8.0 1.0 3 ------- null}
- -t 0.57806 -s 4 -d 10 -p cbr -e 500 -c 0 -i 3 -a 0 -x {8.0 1.0 3 ------- null}
h -t 0.57806 -s 4 -d 10 -p cbr -e 500 -c 0 -i 3 -a 0 -x {8.0 1.0 -1 ------- null}
- -t 0.57806 -s 5 -d 4 -p cbr -e 500 -c 0 -i 14 -a 0 -x {8.0 1.0 14 ------- null}
h -t 0.57806 -s 5 -d 4 -p cbr -e 500 -c 0 -i 14 -a 0 -x {8.0 1.0 -1 ------- null}
r -t 0.57812 -s 10 -d 1 -p cbr -e 500 -c 0 -i 0 -a 0 -x {8.0 1.0 0 ------- null}
r -t 0.578868 -s 11 -d 5 -p cbr -e 500 -c 0 -i 27 -a 0 -x {8.0 1.0 27 ------- null}
+ -t 0.578868 -s 5 -d 4 -p cbr -e 500 -c 0 -i 27 -a 0 -x {8.0 1.0 27 ------- null}
+ -t 0.579 -s 8 -d 11 -p cbr -e 500 -c 0 -i 69 -a 0 -x {8.0 1.0 69 ------- null}
h -t 0.579 -s 8 -d 11 -p cbr -e 500 -c 0 -i 79 -a 0 -x {8.0 1.0 79 ------- null}
- -t 0.579432 -s 8 -d 11 -p cbr -e 500 -c 0 -i 33 -a 0 -x {8.0 1.0 33 ------- null}
h -t 0.579432 -s 8 -d 11 -p cbr -e 500 -c 0 -i 33 -a 0 -x {8.0 1.0 -1 ------- null}
+ -t 0.58 -s 8 -d 11 -p cbr -e 500 -c 0 -i 70 -a 0 -x {8.0 1.0 70 ------- null}
h -t 0.58 -s 8 -d 11 -p cbr -e 500 -c 0 -i 80 -a 0 -x {8.0 1.0 80 ------- null}
r -t 0.58006 -s 5 -d 4 -p cbr -e 500 -c 0 -i 6 -a 0 -x {8.0 1.0 6 ------- null}
h -t 0.58006 -s 4 -d 10 -p cbr -e 500 -c 0 -i 6 -a 0 -x {8.0 1.0 6 ------- null}
r -t 0.580972 -s 11 -d 5 -p cbr -e 500 -c 0 -i 28 -a 0 -x {8.0 1.0 28 ------- null}
+ -t 0.580972 -s 5 -d 4 -p cbr -e 500 -c 0 -i 28 -a 0 -x {8.0 1.0 28 ------- null}
+ -t 0.581 -s 8 -d 11 -p cbr -e 500 -c 0 -i 71 -a 0 -x {8.0 1.0 71 ------- null}
h -t 0.581 -s 8 -d 11 -p cbr -e 500 -c 0 -i 81 -a 0 -x {8.0 1.0 81 ------- null}
- -t 0.581536 -s 8 -d 11 -p cbr -e 500 -c 0 -i 34 -a 0 -x {8.0 1.0 34 ------- null}
h -t 0.581536 -s 8 -d 11 -p cbr -e 500 -c 0 -i 34 -a 0 -x {8.0 1.0 -1 ------- null}
+ -t 0.582 -s 8 -d 11 -p cbr -e 500 -c 0 -i 72 -a 0 -x {8.0 1.0 72 ------- null}
h -t 0.582 -s 8 -d 11 -p cbr -e 500 -c 0 -i 82 -a 0 -x {8.0 1.0 82 ------- null}
+ -t 0.58206 -s 4 -d 10 -p cbr -e 500 -c 0 -i 4 -a 0 -x {8.0 1.0 4 ------- null}
- -t 0.58206 -s 4 -d 10 -p cbr -e 500 -c 0 -i 4 -a 0 -x {8.0 1.0 4 ------- null}
h -t 0.58206 -s 4 -d 10 -p cbr -e 500 -c 0 -i 4 -a 0 -x {8.0 1.0 -1 ------- null}
- -t 0.58206 -s 5 -d 4 -p cbr -e 500 -c 0 -i 15 -a 0 -x {8.0 1.0 15 ------- null}
h -t 0.58206 -s 5 -d 4 -p cbr -e 500 -c 0 -i 15 -a 0 -x {8.0 1.0 -1 ------- null}
r -t 0.58212 -s 10 -d 1 -p cbr -e 500 -c 0 -i 1 -a 0 -x {8.0 1.0 1 ------- null}
+ -t 0.583 -s 8 -d 11 -p cbr -e 500 -c 0 -i 73 -a 0 -x {8.0 1.0 73 ------- null}
h -t 0.583 -s 8 -d 11 -p cbr -e 500 -c 0 -i 83 -a 0 -x {8.0 1.0 83 ------- null}
r -t 0.583076 -s 11 -d 5 -p cbr -e 500 -c 0 -i 29 -a 0 -x {8.0 1.0 29 ------- null}
+ -t 0.583076 -s 5 -d 4 -p cbr -e 500 -c 0 -i 29 -a 0 -x {8.0 1.0 29 ------- null}
- -t 0.58364 -s 8 -d 11 -p cbr -e 500 -c 0 -i 35 -a 0 -x {8.0 1.0 35 ------- null}
h -t 0.58364 -s 8 -d 11 -p cbr -e 500 -c 0 -i 35 -a 0 -x {8.0 1.0 -1 ------- null}
+ -t 0.584 -s 8 -d 11 -p cbr -e 500 -c 0 -i 74 -a 0 -x {8.0 1.0 74 ------- null}
h -t 0.584 -s 8 -d 11 -p cbr -e 500 -c 0 -i 84 -a 0 -x {8.0 1.0 84 ------- null}