h 0.5 8 11 cbr 500 ------- 0 8.0 1.0 0 0
h 0.501 8 11 cbr 500 ------- 0 8.0 1.0 1 1
h 0.502 8 11 cbr 500 ------- 0 8.0 1.0 2 2
h 0.503 8 11 cbr 500 ------- 0 8.0 1.0 3 3
h 0.504 8 11 cbr 500 ------- 0 8.0 1.0 4 4
h 0.505 8 11 cbr 500 ------- 0 8.0 1.0 5 5
h 0.506 8 11 cbr 500 ------- 0 8.0 1.0 6 6
h 0.507 8 11 cbr 500 ------- 0 8.0 1.0 7 7
h 0.508 8 11 cbr 500 ------- 0 8.0 1.0 8 8
h 0.509 8 11 cbr 500 ------- 0 8.0 1.0 9 9
+ 0.51 8 11 cbr 500 ------- 0 8.0 1.0 0 0
- 0.51 8 11 cbr 500 ------- 0 8.0 1.0 0 0
h 0.51 8 11 cbr 500 ------- 0 8.0 1.0 10 10
+ 0.511 8 11 cbr 500 ------- 0 8.0 1.0 1 1
h 0.511 8 11 cbr 500 ------- 0 8.0 1.0 11 11
+ 0.512 8 11 cbr 500 ------- 0 8.0 1.0 2 2
h 0.512 8 11 cbr 500 ------- 0 8.0 1.0 12 12
- 0.512104 8 11 cbr 500 ------- 0 8.0 1.0 1 1
+ 0.513 8 11 cbr 500 ------- 0 8.0 1.0 3 3
h 0.513 8 11 cbr 500 ------- 0 8.0 1.0 13 13
+ 0.514 8 11 cbr 500 ------- 0 8.0 1.0 4 4
h 0.514 8 11 cbr 500 ------- 0 8.0 1.0 14 14
- 0.514208 8 11 cbr 500 ------- 0 8.0 1.0 2 2
+ 0.515 8 11 cbr 500 ------- 0 8.0 1.0 5 5
h 0.515 8 11 cbr 500 ------- 0 8.0 1.0 15 15
+ 0.516 8 11 cbr 500 ------- 0 8.0 1.0 6 6
h 0.516 8 11 cbr 500 ------- 0 8.0 1.0 16 16
- 0.516312 8 11 cbr 500 ------- 0 8.0 1.0 3 3
+ 0.517 8 11 cbr 500 ------- 0 8.0 1.0 7 7
h 0.517 8 11 cbr 500 ------- 0 8.0 1.0 17 17
+ 0.518 8 11 cbr 500 ------- 0 8.0 1.0 8 8
h 0.518 8 11 cbr 500 ------- 0 8.0 1.0 18 18
- 0.518416 8 11 cbr 500 ------- 0 8.0 1.0 4 4
+ 0.519 8 11 cbr 500 ------- 0 8.0 1.0 9 9
h 0.519 8 11 cbr 500 ------- 0 8.0 1.0 19 19
+ 0.52 8 11 cbr 500 ------- 0 8.0 1.0 10 10
h 0.52 8 11 cbr 500 ------- 0 8.0 1.0 20 20
- 0.52052 8 11 cbr 500 ------- 0 8.0 1.0 5 5
+ 0.521 8 11 cbr 500 ------- 0 8.0 1.0 11 11
h 0.521 8 11 cbr 500 ------- 0 8.0 1.0 21 21
+ 0.522 8 11 cbr 500 ------- 0 8.0 1.0 12 12
h 0.522 8 11 cbr 500 ------- 0 8.0 1.0 22 22
r 0.52206 11 5 cbr 500 ------- 0 8.0 1.0 0 0
+ 0.52206 5 4 cbr 500 ------- 0 8.0 1.0 0 0
- 0.52206 5 4 cbr 500 ------- 0 8.0 1.0 0 0
- 0.522624 8 11 cbr 500 ------- 0 8.0 1.0 6 6
+ 0.523 8 11 cbr 500 ------- 0 8.0 1.0 13 13
h 0.523 8 11 cbr 500 ------- 0 8.0 1.0 23 23
+ 0.524 8 11 cbr 500 ------- 0 8.0 1.0 14 14
h 0.524 8 11 cbr 500 ------- 0 8.0 1.0 24 24
r 0.524164 11 5 cbr 500 ------- 0 8.0 1.0 1 1
+ 0.524164 5 4 cbr 500 ------- 0 8.0 1.0 1 1
- 0.524728 8 11 cbr 500 ------- 0 8.0 1.0 7 7
+ 0.525 8 11 cbr 500 ------- 0 8.0 1.0 15 15
h 0.525 8 11 cbr 500 ------- 0 8.0 1.0 25 25
+ 0.526 8 11 cbr 500 ------- 0 8.0 1.0 16 16
h 0.526 8 11 cbr 500 ------- 0 8.0 1.0 26 26
- 0.52606 5 4 cbr 500 ------- 0 8.0 1.0 1 1
r 0.526268 11 5 cbr 500 ------- 0 8.0 1.0 2 2
+ 0.526268 5 4 cbr 500 ------- 0 8.0 1.0 2 2
- 0.526832 8 11 cbr 500 ------- 0 8.0 1.0 8 8
+ 0.527 8 11 cbr 500 ------- 0 8.0 1.0 17 17
h 0.527 8 11 cbr 500 ------- 0 8.0 1.0 27 27
+ 0.528 8 11 cbr 500 ------- 0 8.0 1.0 18 18
h 0.528 8 11 cbr 500 ------- 0 8.0 1.0 28 28
r 0.528372 11 5 cbr 500 ------- 0 8.0 1.0 3 3
+ 0.528372 5 4 cbr 500 ------- 0 8.0 1.0 3 3
- 0.528936 8 11 cbr 500 ------- 0 8.0 1.0 9 9
+ 0.529 8 11 cbr 500 ------- 0 8.0 1.0 19 19
h 0.529 8 11 cbr 500 ------- 0 8.0 1.0 29 29
+ 0.53 8 11 cbr 500 ------- 0 8.0 1.0 20 20
h 0.53 8 11 cbr 500 ------- 0 8.0 1.0 30 30
- 0.53006 5 4 cbr 500 ------- 0 8.0 1.0 2 2
r 0.530476 11 5 cbr 500 ------- 0 8.0 1.0 4 4
+ 0.530476 5 4 cbr 500 ------- 0 8.0 1.0 4 4
+ 0.531 8 11 cbr 500 ------- 0 8.0 1.0 21 21
h 0.531 8 11 cbr 500 ------- 0 8.0 1.0 31 31
- 0.53104 8 11 cbr 500 ------- 0 8.0 1.0 10 10
+ 0.532 8 11 cbr 500 ------- 0 8.0 1.0 22 22
h 0.532 8 11 cbr 500 ------- 0 8.0 1.0 32 32
r 0.53258 11 5 cbr 500 ------- 0 8.0 1.0 5 5
+ 0.53258 5 4 cbr 500 ------- 0 8.0 1.0 5 5
+ 0.533 8 11 cbr 500 ------- 0 8.0 1.0 23 23
h 0.533 8 11 cbr 500 ------- 0 8.0 1.0 33 33
- 0.533144 8 11 cbr 500 ------- 0 8.0 1.0 11 11
+ 0.534 8 11 cbr 500 ------- 0 8.0 1.0 24 24
h 0.534 8 11 cbr 500 ------- 0 8.0 1.0 34 34
- 0.53406 5 4 cbr 500 ------- 0 8.0 1.0 3 3
r 0.534684 11 5 cbr 500 ------- 0 8.0 1.0 6 6
+ 0.534684 5 4 cbr 500 ------- 0 8.0 1.0 6 6
+ 0.535 8 11 cbr 500 ------- 0 8.0 1.0 25 25
h 0.535 8 11 cbr 500 ------- 0 8.0 1.0 35 35
- 0.535248 8 11 cbr 500 ------- 0 8.0 1.0 12 12
+ 0.536 8 11 cbr 500 ------- 0 8.0 1.0 26 26
h 0.536 8 11 cbr 500 ------- 0 8.0 1.0 36 36
r 0.536788 11 5 cbr 500 ------- 0 8.0 1.0 7 7
+ 0.536788 5 4 cbr 500 ------- 0 8.0 1.0 7 7
+ 0.537 8 11 cbr 500 ------- 0 8.0 1.0 27 27
h 0.537 8 11 cbr 500 ------- 0 8.0 1.0 37 37
- 0.537352 8 11 cbr 500 ------- 0 8.0 1.0 13 13
+ 0.538 8 11 cbr 500 ------- 0 8.0 1.0 28 28
h 0.538 8 11 cbr 500 ------- 0 8.0 1.0 38 38
- 0.53806 5 4 cbr 500 ------- 0 8.0 1.0 4 4
r 0.538892 11 5 cbr 500 ------- 0 8.0 1.0 8 8
+ 0.538892 5 4 cbr 500 ------- 0 8.0 1.0 8 8
+ 0.539 8 11 cbr 500 ------- 0 8.0 1.0 29 29
h 0.539 8 11 cbr 500 ------- 0 8.0 1.0 39 39
- 0.539456 8 11 cbr 500 ------- 0 8.0 1.0 14 14
+ 0.54 8 11 cbr 500 ------- 0 8.0 1.0 30 30
h 0.54 8 11 cbr 500 ------- 0 8.0 1.0 40 40
r 0.540996 11 5 cbr 500 ------- 0 8.0 1.0 9 9
+ 0.540996 5 4 cbr 500 ------- 0 8.0 1.0 9 9
+ 0.541 8 11 cbr 500 ------- 0 8.0 1.0 31 31
h 0.541 8 11 cbr 500 ------- 0 8.0 1.0 41 41
- 0.54156 8 11 cbr 500 ------- 0 8.0 1.0 15 15
+ 0.542 8 11 cbr 500 ------- 0 8.0 1.0 32 32
h 0.542 8 11 cbr 500 ------- 0 8.0 1.0 42 42
- 0.54206 5 4 cbr 500 ------- 0 8.0 1.0 5 5
+ 0.543 8 11 cbr 500 ------- 0 8.0 1.0 33 33
h 0.543 8 11 cbr 500 ------- 0 8.0 1.0 43 43
r 0.5431 11 5 cbr 500 ------- 0 8.0 1.0 10 10
+ 0.5431 5 4 cbr 500 ------- 0 8.0 1.0 10 10
- 0.543664 8 11 cbr 500 ------- 0 8.0 1.0 16 16
+ 0.544 8 11 cbr 500 ------- 0 8.0 1.0 34 34
h 0.544 8 11 cbr 500 ------- 0 8.0 1.0 44 44
+ 0.545 8 11 cbr 500 ------- 0 8.0 1.0 35 35
h 0.545 8 11 cbr 500 ------- 0 8.0 1.0 45 45
r 0.545204 11 5 cbr 500 ------- 0 8.0 1.0 11 11
+ 0.545204 5 4 cbr 500 ------- 0 8.0 1.0 11 11
- 0.545768 8 11 cbr 500 ------- 0 8.0 1.0 17 17
+ 0.546 8 11 cbr 500 ------- 0 8.0 1.0 36 36
h 0.546 8 11 cbr 500 ------- 0 8.0 1.0 46 46
- 0.54606 5 4 cbr 500 ------- 0 8.0 1.0 6 6
+ 0.547 8 11 cbr 500 ------- 0 8.0 1.0 37 37
h 0.547 8 11 cbr 500 ------- 0 8.0 1.0 47 47
r 0.547308 11 5 cbr 500 ------- 0 8.0 1.0 12 12
+ 0.547308 5 4 cbr 500 ------- 0 8.0 1.0 12 12
- 0.547872 8 11 cbr 500 ------- 0 8.0 1.0 18 18
+ 0.548 8 11 cbr 500 ------- 0 8.0 1.0 38 38
h 0.548 8 11 cbr 500 ------- 0 8.0 1.0 48 48
+ 0.549 8 11 cbr 500 ------- 0 8.0 1.0 39 39
h 0.549 8 11 cbr 500 ------- 0 8.0 1.0 49 49
r 0.549412 11 5 cbr 500 ------- 0 8.0 1.0 13 13
+ 0.549412 5 4 cbr 500 ------- 0 8.0 1.0 13 13
- 0.549976 8 11 cbr 500 ------- 0 8.0 1.0 19 19
+ 0.55 8 11 cbr 500 ------- 0 8.0 1.0 40 40
h 0.55 8 11 cbr 500 ------- 0 8.0 1.0 50 50
- 0.55006 5 4 cbr 500 ------- 0 8.0 1.0 7 7
+ 0.551 8 11 cbr 500 ------- 0 8.0 1.0 41 41
h 0.551 8 11 cbr 500 ------- 0 8.0 1.0 51 51
r 0.551516 11 5 cbr 500 ------- 0 8.0 1.0 14 14
+ 0.551516 5 4 cbr 500 ------- 0 8.0 1.0 14 14
+ 0.552 8 11 cbr 500 ------- 0 8.0 1.0 42 42
h 0.552 8 11 cbr 500 ------- 0 8.0 1.0 52 52
- 0.55208 8 11 cbr 500 ------- 0 8.0 1.0 20 20
+ 0.553 8 11 cbr 500 ------- 0 8.0 1.0 43 43
h 0.553 8 11 cbr 500 ------- 0 8.0 1.0 53 53
r 0.55362 11 5 cbr 500 ------- 0 8.0 1.0 15 15
+ 0.55362 5 4 cbr 500 ------- 0 8.0 1.0 15 15
+ 0.554 8 11 cbr 500 ------- 0 8.0 1.0 44 44
h 0.554 8 11 cbr 500 ------- 0 8.0 1.0 54 54
- 0.55406 5 4 cbr 500 ------- 0 8.0 1.0 8 8
- 0.554184 8 11 cbr 500 ------- 0 8.0 1.0 21 21
+ 0.555 8 11 cbr 500 ------- 0 8.0 1.0 45 45
h 0.555 8 11 cbr 500 ------- 0 8.0 1.0 55 55
r 0.555724 11 5 cbr 500 ------- 0 8.0 1.0 16 16
+ 0.555724 5 4 cbr 500 ------- 0 8.0 1.0 16 16
+ 0.556 8 11 cbr 500 ------- 0 8.0 1.0 46 46
h 0.556 8 11 cbr 500 ------- 0 8.0 1.0 56 56
r 0.55606 5 4 cbr 500 ------- 0 8.0 1.0 0 0
h 0.55606 4 10 cbr 500 ------- 0 8.0 1.0 0 0
- 0.556288 8 11 cbr 500 ------- 0 8.0 1.0 22 22
+ 0.557 8 11 cbr 500 ------- 0 8.0 1.0 47 47
h 0.557 8 11 cbr 500 ------- 0 8.0 1.0 57 57
r 0.557828 11 5 cbr 500 ------- 0 8.0 1.0 17 17
+ 0.557828 5 4 cbr 500 ------- 0 8.0 1.0 17 17
+ 0.558 8 11 cbr 500 ------- 0 8.0 1.0 48 48
h 0.558 8 11 cbr 500 ------- 0 8.0 1.0 58 58
- 0.55806 5 4 cbr 500 ------- 0 8.0 1.0 9 9
- 0.558392 8 11 cbr 500 ------- 0 8.0 1.0 23 23
+ 0.559 8 11 cbr 500 ------- 0 8.0 1.0 49 49
h 0.559 8 11 cbr 500 ------- 0 8.0 1.0 59 59
r 0.559932 11 5 cbr 500 ------- 0 8.0 1.0 18 18
+ 0.559932 5 4 cbr 500 ------- 0 8.0 1.0 18 18
+ 0.56 8 11 cbr 500 ------- 0 8.0 1.0 50 50
h 0.56 8 11 cbr 500 ------- 0 8.0 1.0 60 60
r 0.56006 5 4 cbr 500 ------- 0 8.0 1.0 1 1
h 0.56006 4 10 cbr 500 ------- 0 8.0 1.0 1 1
- 0.560496 8 11 cbr 500 ------- 0 8.0 1.0 24 24
+ 0.561 8 11 cbr 500 ------- 0 8.0 1.0 51 51
h 0.561 8 11 cbr 500 ------- 0 8.0 1.0 61 61
+ 0.562 8 11 cbr 500 ------- 0 8.0 1.0 52 52
h 0.562 8 11 cbr 500 ------- 0 8.0 1.0 62 62
r 0.562036 11 5 cbr 500 ------- 0 8.0 1.0 19 19
+ 0.562036 5 4 cbr 500 ------- 0 8.0 1.0 19 19
- 0.56206 5 4 cbr 500 ------- 0 8.0 1.0 10 10
- 0.5626 8 11 cbr 500 ------- 0 8.0 1.0 25 25
+ 0.563 8 11 cbr 500 ------- 0 8.0 1.0 53 53
h 0.563 8 11 cbr 500 ------- 0 8.0 1.0 63 63
+ 0.564 8 11 cbr 500 ------- 0 8.0 1.0 54 54
h 0.564 8 11 cbr 500 ------- 0 8.0 1.0 64 64
r 0.56406 5 4 cbr 500 ------- 0 8.0 1.0 2 2
h 0.56406 4 10 cbr 500 ------- 0 8.0 1.0 2 2
r 0.56414 11 5 cbr 500 ------- 0 8.0 1.0 20 20
+ 0.56414 5 4 cbr 500 ------- 0 8.0 1.0 20 20
- 0.564704 8 11 cbr 500 ------- 0 8.0 1.0 26 26
+ 0.565 8 11 cbr 500 ------- 0 8.0 1.0 55 55
h 0.565 8 11 cbr 500 ------- 0 8.0 1.0 65 65
+ 0.566 8 11 cbr 500 ------- 0 8.0 1.0 56 56
h 0.566 8 11 cbr 500 ------- 0 8.0 1.0 66 66
+ 0.56606 4 10 cbr 500 ------- 0 8.0 1.0 0 0
- 0.56606 4 10 cbr 500 ------- 0 8.0 1.0 0 0
- 0.56606 5 4 cbr 500 ------- 0 8.0 1.0 11 11
r 0.566244 11 5 cbr 500 ------- 0 8.0 1.0 21 21
+ 0.566244 5 4 cbr 500 ------- 0 8.0 1.0 21 21
- 0.566808 8 11 cbr 500 ------- 0 8.0 1.0 27 27
+ 0.567 8 11 cbr 500 ------- 0 8.0 1.0 57 57
h 0.567 8 11 cbr 500 ------- 0 8.0 1.0 67 67
+ 0.568 8 11 cbr 500 ------- 0 8.0 1.0 58 58
h 0.568 8 11 cbr 500 ------- 0 8.0 1.0 68 68
r 0.56806 5 4 cbr 500 ------- 0 8.0 1.0 3 3
h 0.56806 4 10 cbr 500 ------- 0 8.0 1.0 3 3
r 0.568348 11 5 cbr 500 ------- 0 8.0 1.0 22 22
+ 0.568348 5 4 cbr 500 ------- 0 8.0 1.0 22 22
- 0.568912 8 11 cbr 500 ------- 0 8.0 1.0 28 28
+ 0.569 8 11 cbr 500 ------- 0 8.0 1.0 59 59
h 0.569 8 11 cbr 500 ------- 0 8.0 1.0 69 69
+ 0.57 8 11 cbr 500 ------- 0 8.0 1.0 60 60
h 0.57 8 11 cbr 500 ------- 0 8.0 1.0 70 70
+ 0.57006 4 10 cbr 500 ------- 0 8.0 1.0 1 1
- 0.57006 4 10 cbr 500 ------- 0 8.0 1.0 1 1
- 0.57006 5 4 cbr 500 ------- 0 8.0 1.0 12 12
r 0.570452 11 5 cbr 500 ------- 0 8.0 1.0 23 23
+ 0.570452 5 4 cbr 500 ------- 0 8.0 1.0 23 23
+ 0.571 8 11 cbr 500 ------- 0 8.0 1.0 61 61
h 0.571 8 11 cbr 500 ------- 0 8.0 1.0 71 71
- 0.571016 8 11 cbr 500 ------- 0 8.0 1.0 29 29
+ 0.572 8 11 cbr 500 ------- 0 8.0 1.0 62 62
h 0.572 8 11 cbr 500 ------- 0 8.0 1.0 72 72
r 0.57206 5 4 cbr 500 ------- 0 8.0 1.0 4 4
h 0.57206 4 10 cbr 500 ------- 0 8.0 1.0 4 4
r 0.572556 11 5 cbr 500 ------- 0 8.0 1.0 24 24
+ 0.572556 5 4 cbr 500 ------- 0 8.0 1.0 24 24
+ 0.573 8 11 cbr 500 ------- 0 8.0 1.0 63 63
h 0.573 8 11 cbr 500 ------- 0 8.0 1.0 73 73
- 0.57312 8 11 cbr 500 ------- 0 8.0 1.0 30 30
+ 0.574 8 11 cbr 500 ------- 0 8.0 1.0 64 64
h 0.574 8 11 cbr 500 ------- 0 8.0 1.0 74 74
+ 0.57406 4 10 cbr 500 ------- 0 8.0 1.0 2 2
- 0.57406 4 10 cbr 500 ------- 0 8.0 1.0 2 2
- 0.57406 5 4 cbr 500 ------- 0 8.0 1.0 13 13
r 0.57466 11 5 cbr 500 ------- 0 8.0 1.0 25 25
+ 0.57466 5 4 cbr 500 ------- 0 8.0 1.0 25 25
+ 0.575 8 11 cbr 500 ------- 0 8.0 1.0 65 65
h 0.575 8 11 cbr 500 ------- 0 8.0 1.0 75 75
- 0.575224 8 11 cbr 500 ------- 0 8.0 1.0 31 31
+ 0.576 8 11 cbr 500 ------- 0 8.0 1.0 66 66
h 0.576 8 11 cbr 500 ------- 0 8.0 1.0 76 76
r 0.57606 5 4 cbr 500 ------- 0 8.0 1.0 5 5
h 0.57606 4 10 cbr 500 ------- 0 8.0 1.0 5 5
r 0.576764 11 5 cbr 500 ------- 0 8.0 1.0 26 26
+ 0.576764 5 4 cbr 500 ------- 0 8.0 1.0 26 26
+ 0.577 8 11 cbr 500 ------- 0 8.0 1.0 67 67
h 0.577 8 11 cbr 500 ------- 0 8.0 1.0 77 77
- 0.577328 8 11 cbr 500 ------- 0 8.0 1.0 32 32
+ 0.578 8 11 cbr 500 ------- 0 8.0 1.0 68 68
h 0.578 8 11 cbr 500 ------- 0 8.0 1.0 78 78
+ 0.57806 4 10 cbr 500 ------- 0 8.0 1.0 3 3
- 0.57806 4 10 cbr 500 ------- 0 8.0 1.0 3 3
- 0.57806 5 4 cbr 500 ------- 0 8.0 1.0 14 14
r 0.57812 10 1 cbr 500 ------- 0 8.0 1.0 0 0
r 0.578868 11 5 cbr 500 ------- 0 8.0 1.0 27 27
+ 0.578868 5 4 cbr 500 ------- 0 8.0 1.0 27 27
+ 0.579 8 11 cbr 500 ------- 0 8.0 1.0 69 69
h 0.579 8 11 cbr 500 ------- 0 8.0 1.0 79 79
- 0.579432 8 11 cbr 500 ------- 0 8.0 1.0 33 33
+ 0.58 8 11 cbr 500 ------- 0 8.0 1.0 70 70
h 0.58 8 11 cbr 500 ------- 0 8.0 1.0 80 80
r 0.58006 5 4 cbr 500 ------- 0 8.0 1.0 6 6
h 0.58006 4 10 cbr 500 ------- 0 8.0 1.0 6 6
r 0.580972 11 5 cbr 500 ------- 0 8.0 1.0 28 28
+ 0.580972 5 4 cbr 500 ------- 0 8.0 1.0 28 28
+ 0.581 8 11 cbr 500 ------- 0 8.0 1.0 71 71
h 0.581 8 11 cbr 500 ------- 0 8.0 1.0 81 81
- 0.581536 8 11 cbr 500 ------- 0 8.0 1.0 34 34
+ 0.582 8 11 cbr 500 ------- 0 8.0 1.0 72 72
h 0.582 8 11 cbr 500 ------- 0 8.0 1.0 82 82
+ 0.58206 4 10 cbr 500 ------- 0 8.0 1.0 4 4
- 0.58206 4 10 cbr 500 ------- 0 8.0 1.0 4 4
- 0.58206 5 4 cbr 500 ------- 0 8.0 1.0 15 15
r 0.58212 10 1 cbr 500 ------- 0 8.0 1.0 1 1
+ 0.583 8 11 cbr 500 ------- 0 8.0 1.0 73 73
h 0.583 8 11 cbr 500 ------- 0 8.0 1.0 83 83
r 0.583076 11 5 cbr 500 ------- 0 8.0 1.0 29 29
+ 0.583076 5 4 cbr 500 ------- 0 8.0 1.0 29 29
- 0.58364 8 11 cbr 500 ------- 0 8.0 1.0 35 35
+ 0.584 8 11 cbr 500 ------- 0 8.0 1.0 74 74
h 0.584 8 11 cbr 500 ------- 0 8.0 1.0 84 84
r 0.58406 5 4 cbr 500 ------- 0 8.0 1.0 7 7
h 0.58406 4 10 cbr 500 ------- 0 8.0 1.0 7 7
+ 0.585 8 11 cbr 500 ------- 0 8.0 1.0 75 75
h 0.585 8 11 cbr 500 ------- 0 8.0 1.0 85 85
r 0.58518 11 5 cbr 500 ------- 0 8.0 1.0 30 30
+ 0.58518 5 4 cbr 500 ------- 0 8.0 1.0 30 30
- 0.585744 8 11 cbr 500 ------- 0 8.0 1.0 36 36
+ 0.586 8 11 cbr 500 ------- 0 8.0 1.0 76 76
h 0.586 8 11 cbr 500 ------- 0 8.0 1.0 86 86
+ 0.58606 4 10 cbr 500 ------- 0 8.0 1.0 5 5
- 0.58606 4 10 cbr 500 ------- 0 8.0 1.0 5 5
- 0.58606 5 4 cbr 500 ------- 0 8.0 1.0 16 16
r 0.58612 10 1 cbr 500 ------- 0 8.0 1.0 2 2
+ 0.587 8 11 cbr 500 ------- 0 8.0 1.0 77 77
h 0.587 8 11 cbr 500 ------- 0 8.0 1.0 87 87
r 0.587284 11 5 cbr 500 ------- 0 8.0 1.0 31 31
+ 0.587284 5 4 cbr 500 ------- 0 8.0 1.0 31 31
- 0.587848 8 11 cbr 500 ------- 0 8.0 1.0 37 37
+ 0.588 8 11 cbr 500 ------- 0 8.0 1.0 78 78
h 0.588 8 11 cbr 500 ------- 0 8.0 1.0 88 88
r 0.58806 5 4 cbr 500 ------- 0 8.0 1.0 8 8
h 0.58806 4 10 cbr 500 ------- 0 8.0 1.0 8 8
+ 0.589 8 11 cbr 500 ------- 0 8.0 1.0 79 79
h 0.589 8 11 cbr 500 ------- 0 8.0 1.0 89 89
r 0.589388 11 5 cbr 500 ------- 0 8.0 1.0 32 32
+ 0.589388 5 4 cbr 500 ------- 0 8.0 1.0 32 32
- 0.589952 8 11 cbr 500 ------- 0 8.0 1.0 38 38
+ 0.59 8 11 cbr 500 ------- 0 8.0 1.0 80 80
h 0.59 8 11 cbr 500 ------- 0 8.0 1.0 90 90
+ 0.59006 4 10 cbr 500 ------- 0 8.0 1.0 6 6
- 0.59006 4 10 cbr 500 ------- 0 8.0 1.0 6 6
- 0.59006 5 4 cbr 500 ------- 0 8.0 1.0 17 17
r 0.59012 10 1 cbr 500 ------- 0 8.0 1.0 3 3
+ 0.591 8 11 cbr 500 ------- 0 8.0 1.0 81 81
h 0.591 8 11 cbr 500 ------- 0 8.0 1.0 91 91
r 0.591492 11 5 cbr 500 ------- 0 8.0 1.0 33 33
+ 0.591492 5 4 cbr 500 ------- 0 8.0 1.0 33 33
+ 0.592 8 11 cbr 500 ------- 0 8.0 1.0 82 82
h 0.592 8 11 cbr 500 ------- 0 8.0 1.0 92 92
- 0.592056 8 11 cbr 500 ------- 0 8.0 1.0 39 39
r 0.59206 5 4 cbr 500 ------- 0 8.0 1.0 9 9
h 0.59206 4 10 cbr 500 ------- 0 8.0 1.0 9 9
+ 0.593 8 11 cbr 500 ------- 0 8.0 1.0 83 83
h 0.593 8 11 cbr 500 ------- 0 8.0 1.0 93 93
r 0.593596 11 5 cbr 500 ------- 0 8.0 1.0 34 34
+ 0.593596 5 4 cbr 500 ------- 0 8.0 1.0 34 34
+ 0.594 8 11 cbr 500 ------- 0 8.0 1.0 84 84
h 0.594 8 11 cbr 500 ------- 0 8.0 1.0 94 94
+ 0.59406 4 10 cbr 500 ------- 0 8.0 1.0 7 7
- 0.59406 4 10 cbr 500 ------- 0 8.0 1.0 7 7
- 0.59406 5 4 cbr 500 ------- 0 8.0 1.0 18 18
r 0.59412 10 1 cbr 500 ------- 0 8.0 1.0 4 4
- 0.59416 8 11 cbr 500 ------- 0 8.0 1.0 40 40
+ 0.595 8 11 cbr 500 ------- 0 8.0 1.0 85 85
h 0.595 8 11 cbr 500 ------- 0 8.0 1.0 95 95
r 0.5957 11 5 cbr 500 ------- 0 8.0 1.0 35 35
+ 0.5957 5 4 cbr 500 ------- 0 8.0 1.0 35 35
+ 0.596 8 11 cbr 500 ------- 0 8.0 1.0 86 86
h 0.596 8 11 cbr 500 ------- 0 8.0 1.0 96 96
r 0.59606 5 4 cbr 500 ------- 0 8.0 1.0 10 10
h 0.59606 4 10 cbr 500 ------- 0 8.0 1.0 10 10
- 0.596264 8 11 cbr 500 ------- 0 8.0 1.0 41 41
+ 0.597 8 11 cbr 500 ------- 0 8.0 1.0 87 87
h 0.597 8 11 cbr 500 ------- 0 8.0 1.0 97 97
r 0.597804 11 5 cbr 500 ------- 0 8.0 1.0 36 36
+ 0.597804 5 4 cbr 500 ------- 0 8.0 1.0 36 36
+ 0.598 8 11 cbr 500 ------- 0 8.0 1.0 88 88
h 0.598 8 11 cbr 500 ------- 0 8.0 1.0 98 98
+ 0.59806 4 10 cbr 500 ------- 0 8.0 1.0 8 8
- 0.59806 4 10 cbr 500 ------- 0 8.0 1.0 8 8
- 0.59806 5 4 cbr 500 ------- 0 8.0 1.0 19 19
r 0.59812 10 1 cbr 500 ------- 0 8.0 1.0 5 5
- 0.598368 8 11 cbr 500 ------- 0 8.0 1.0 42 42
+ 0.599 8 11 cbr 500 ------- 0 8.0 1.0 89 89
h 0.599 8 11 cbr 500 ------- 0 8.0 1.0 99 99
r 0.599908 11 5 cbr 500 ------- 0 8.0 1.0 37 37
+ 0.599908 5 4 cbr 500 ------- 0 8.0 1.0 37 37
+ 0.6 8 11 cbr 500 ------- 0 8.0 1.0 90 90
h 0.6 8 11 cbr 500 ------- 0 8.0 1.0 100 100
r 0.60006 5 4 cbr 500 ------- 0 8.0 1.0 11 11
h 0.60006 4 10 cbr 500 ------- 0 8.0 1.0 11 11
- 0.600472 8 11 cbr 500 ------- 0 8.0 1.0 43 43
+ 0.601 8 11 cbr 500 ------- 0 8.0 1.0 91 91
h 0.601 8 11 cbr 500 ------- 0 8.0 1.0 101 101
+ 0.602 8 11 cbr 500 ------- 0 8.0 1.0 92 92
h 0.602 8 11 cbr 500 ------- 0 8.0 1.0 102 102
r 0.602012 11 5 cbr 500 ------- 0 8.0 1.0 38 38
+ 0.602012 5 4 cbr 500 ------- 0 8.0 1.0 38 38
+ 0.60206 4 10 cbr 500 ------- 0 8.0 1.0 9 9
- 0.60206 4 10 cbr 500 ------- 0 8.0 1.0 9 9
- 0.60206 5 4 cbr 500 ------- 0 8.0 1.0 20 20
r 0.60212 10 1 cbr 500 ------- 0 8.0 1.0 6 6
- 0.602576 8 11 cbr 500 ------- 0 8.0 1.0 44 44
+ 0.603 8 11 cbr 500 ------- 0 8.0 1.0 93 93
h 0.603 8 11 cbr 500 ------- 0 8.0 1.0 103 103
+ 0.604 8 11 cbr 500 ------- 0 8.0 1.0 94 94
d 0.604 8 11 cbr 500 ------- 0 8.0 1.0 94 94
h 0.604 8 11 cbr 500 ------- 0 8.0 1.0 104 104
r 0.60406 5 4 cbr 500 ------- 0 8.0 1.0 12 12
h 0.60406 4 10 cbr 500 ------- 0 8.0 1.0 12 12
r 0.604116 11 5 cbr 500 ------- 0 8.0 1.0 39 39
+ 0.604116 5 4 cbr 500 ------- 0 8.0 1.0 39 39
- 0.60468 8 11 cbr 500 ------- 0 8.0 1.0 45 45
+ 0.605 8 11 cbr 500 ------- 0 8.0 1.0 95 95
h 0.605 8 11 cbr 500 ------- 0 8.0 1.0 105 105
+ 0.606 8 11 cbr 500 ------- 0 8.0 1.0 96 96
d 0.606 8 11 cbr 500 ------- 0 8.0 1.0 96 96
h 0.606 8 11 cbr 500 ------- 0 8.0 1.0 106 106
+ 0.60606 4 10 cbr 500 ------- 0 8.0 1.0 10 10
- 0.60606 4 10 cbr 500 ------- 0 8.0 1.0 10 10
- 0.60606 5 4 cbr 500 ------- 0 8.0 1.0 21 21
r 0.60612 10 1 cbr 500 ------- 0 8.0 1.0 7 7
r 0.60622 11 5 cbr 500 ------- 0 8.0 1.0 40 40
+ 0.60622 5 4 cbr 500 ------- 0 8.0 1.0 40 40
- 0.606784 8 11 cbr 500 ------- 0 8.0 1.0 46 46
+ 0.607 8 11 cbr 500 ------- 0 8.0 1.0 97 97
h 0.607 8 11 cbr 500 ------- 0 8.0 1.0 107 107
+ 0.608 8 11 cbr 500 ------- 0 8.0 1.0 98 98
d 0.608 8 11 cbr 500 ------- 0 8.0 1.0 98 98
h 0.608 8 11 cbr 500 ------- 0 8.0 1.0 108 108
r 0.60806 5 4 cbr 500 ------- 0 8.0 1.0 13 13
h 0.60806 4 10 cbr 500 ------- 0 8.0 1.0 13 13
r 0.608324 11 5 cbr 500 ------- 0 8.0 1.0 41 41
+ 0.608324 5 4 cbr 500 ------- 0 8.0 1.0 41 41
- 0.608888 8 11 cbr 500 ------- 0 8.0 1.0 47 47
+ 0.609 8 11 cbr 500 ------- 0 8.0 1.0 99 99
h 0.609 8 11 cbr 500 ------- 0 8.0 1.0 109 109
+ 0.61 8 11 cbr 500 ------- 0 8.0 1.0 100 100
d 0.61 8 11 cbr 500 ------- 0 8.0 1.0 100 100
h 0.61 8 11 cbr 500 ------- 0 8.0 1.0 110 110
+ 0.61006 4 10 cbr 500 ------- 0 8.0 1.0 11 11
- 0.61006 4 10 cbr 500 ------- 0 8.0 1.0 11 11
- 0.61006 5 4 cbr 500 ------- 0 8.0 1.0 22 22
r 0.61012 10 1 cbr 500 ------- 0 8.0 1.0 8 8
r 0.610428 11 5 cbr 500 ------- 0 8.0 1.0 42 42
+ 0.610428 5 4 cbr 500 ------- 0 8.0 1.0 42 42
- 0.610992 8 11 cbr 500 ------- 0 8.0 1.0 48 48
+ 0.611 8 11 cbr 500 ------- 0 8.0 1.0 101 101
h 0.611 8 11 cbr 500 ------- 0 8.0 1.0 111 111
+ 0.612 8 11 cbr 500 ------- 0 8.0 1.0 102 102
d 0.612 8 11 cbr 500 ------- 0 8.0 1.0 102 102
h 0.612 8 11 cbr 500 ------- 0 8.0 1.0 112 112
r 0.61206 5 4 cbr 500 ------- 0 8.0 1.0 14 14
h 0.61206 4 10 cbr 500 ------- 0 8.0 1.0 14 14
r 0.612532 11 5 cbr 500 ------- 0 8.0 1.0 43 43
+ 0.612532 5 4 cbr 500 ------- 0 8.0 1.0 43 43
+ 0.613 8 11 cbr 500 ------- 0 8.0 1.0 103 103
d 0.613 8 11 cbr 500 ------- 0 8.0 1.0 103 103
h 0.613 8 11 cbr 500 ------- 0 8.0 1.0 113 113
- 0.613096 8 11 cbr 500 ------- 0 8.0 1.0 49 49
+ 0.614 8 11 cbr 500 ------- 0 8.0 1.0 104 104
h 0.614 8 11 cbr 500 ------- 0 8.0 1.0 114 114
+ 0.61406 4 10 cbr 500 ------- 0 8.0 1.0 12 12
- 0.61406 4 10 cbr 500 ------- 0 8.0 1.0 12 12
- 0.61406 5 4 cbr 500 ------- 0 8.0 1.0 23 23
r 0.61412 10 1 cbr 500 ------- 0 8.0 1.0 9 9
r 0.614636 11 5 cbr 500 ------- 0 8.0 1.0 44 44
+ 0.614636 5 4 cbr 500 ------- 0 8.0 1.0 44 44
+ 0.615 8 11 cbr 500 ------- 0 8.0 1.0 105 105
d 0.615 8 11 cbr 500 ------- 0 8.0 1.0 105 105
h 0.615 8 11 cbr 500 ------- 0 8.0 1.0 115 115
- 0.6152 8 11 cbr 500 ------- 0 8.0 1.0 50 50
+ 0.616 8 11 cbr 500 ------- 0 8.0 1.0 106 106
h 0.616 8 11 cbr 500 ------- 0 8.0 1.0 116 116
r 0.61606 5 4 cbr 500 ------- 0 8.0 1.0 15 15
h 0.61606 4 10 cbr 500 ------- 0 8.0 1.0 15 15
r 0.61674 11 5 cbr 500 ------- 0 8.0 1.0 45 45
+ 0.61674 5 4 cbr 500 ------- 0 8.0 1.0 45 45
+ 0.617 8 11 cbr 500 ------- 0 8.0 1.0 107 107
d 0.617 8 11 cbr 500 ------- 0 8.0 1.0 107 107
h 0.617 8 11 cbr 500 ------- 0 8.0 1.0 117 117
- 0.617304 8 11 cbr 500 ------- 0 8.0 1.0 51 51
+ 0.618 8 11 cbr 500 ------- 0 8.0 1.0 108 108
h 0.618 8 11 cbr 500 ------- 0 8.0 1.0 118 118
+ 0.61806 4 10 cbr 500 ------- 0 8.0 1.0 13 13
- 0.61806 4 10 cbr 500 ------- 0 8.0 1.0 13 13
- 0.61806 5 4 cbr 500 ------- 0 8.0 1.0 24 24
r 0.61812 10 1 cbr 500 ------- 0 8.0 1.0 10 10
r 0.618844 11 5 cbr 500 ------- 0 8.0 1.0 46 46
+ 0.618844 5 4 cbr 500 ------- 0 8.0 1.0 46 46
+ 0.619 8 11 cbr 500 ------- 0 8.0 1.0 109 109
d 0.619 8 11 cbr 500 ------- 0 8.0 1.0 109 109
h 0.619 8 11 cbr 500 ------- 0 8.0 1.0 119 119
- 0.619408 8 11 cbr 500 ------- 0 8.0 1.0 52 52
+ 0.62 8 11 cbr 500 ------- 0 8.0 1.0 110 110
h 0.62 8 11 cbr 500 ------- 0 8.0 1.0 120 120
r 0.62006 5 4 cbr 500 ------- 0 8.0 1.0 16 16
h 0.62006 4 10 cbr 500 ------- 0 8.0 1.0 16 16
r 0.620948 11 5 cbr 500 ------- 0 8.0 1.0 47 47
+ 0.620948 5 4 cbr 500 ------- 0 8.0 1.0 47 47
+ 0.621 8 11 cbr 500 ------- 0 8.0 1.0 111 111
d 0.621 8 11 cbr 500 ------- 0 8.0 1.0 111 111
h 0.621 8 11 cbr 500 ------- 0 8.0 1.0 121 121
- 0.621512 8 11 cbr 500 ------- 0 8.0 1.0 53 53
+ 0.622 8 11 cbr 500 ------- 0 8.0 1.0 112 112
h 0.622 8 11 cbr 500 ------- 0 8.0 1.0 122 122
+ 0.62206 4 10 cbr 500 ------- 0 8.0 1.0 14 14
- 0.62206 4 10 cbr 500 ------- 0 8.0 1.0 14 14
- 0.62206 5 4 cbr 500 ------- 0 8.0 1.0 25 25
r 0.62212 10 1 cbr 500 ------- 0 8.0 1.0 11 11
+ 0.623 8 11 cbr 500 ------- 0 8.0 1.0 113 113
d 0.623 8 11 cbr 500 ------- 0 8.0 1.0 113 113
h 0.623 8 11 cbr 500 ------- 0 8.0 1.0 123 123
r 0.623052 11 5 cbr 500 ------- 0 8.0 1.0 48 48
+ 0.623052 5 4 cbr 500 ------- 0 8.0 1.0 48 48
- 0.623616 8 11 cbr 500 ------- 0 8.0 1.0 54 54
+ 0.624 8 11 cbr 500 ------- 0 8.0 1.0 114 114
h 0.624 8 11 cbr 500 ------- 0 8.0 1.0 124 124
r 0.62406 5 4 cbr 500 ------- 0 8.0 1.0 17 17
h 0.62406 4 10 cbr 500 ------- 0 8.0 1.0 17 17
+ 0.625 8 11 cbr 500 ------- 0 8.0 1.0 115 115
d 0.625 8 11 cbr 500 ------- 0 8.0 1.0 115 115
h 0.625 8 11 cbr 500 ------- 0 8.0 1.0 125 125
r 0.625156 11 5 cbr 500 ------- 0 8.0 1.0 49 49
+ 0.625156 5 4 cbr 500 ------- 0 8.0 1.0 49 49
- 0.62572 8 11 cbr 500 ------- 0 8.0 1.0 55 55
+ 0.626 8 11 cbr 500 ------- 0 8.0 1.0 116 116
h 0.626 8 11 cbr 500 ------- 0 8.0 1.0 126 126
+ 0.62606 4 10 cbr 500 ------- 0 8.0 1.0 15 15
- 0.62606 4 10 cbr 500 ------- 0 8.0 1.0 15 15
- 0.62606 5 4 cbr 500 ------- 0 8.0 1.0 26 26
r 0.62612 10 1 cbr 500 ------- 0 8.0 1.0 12 12
+ 0.627 8 11 cbr 500 ------- 0 8.0 1.0 117 117
d 0.627 8 11 cbr 500 ------- 0 8.0 1.0 117 117
h 0.627 8 11 cbr 500 ------- 0 8.0 1.0 127 127
r 0.62726 11 5 cbr 500 ------- 0 8.0 1.0 50 50
+ 0.62726 5 4 cbr 500 ------- 0 8.0 1.0 50 50
- 0.627824 8 11 cbr 500 ------- 0 8.0 1.0 56 56
+ 0.628 8 11 cbr 500 ------- 0 8.0 1.0 118 118
h 0.628 8 11 cbr 500 ------- 0 8.0 1.0 128 128
r 0.62806 5 4 cbr 500 ------- 0 8.0 1.0 18 18
h 0.62806 4 10 cbr 500 ------- 0 8.0 1.0 18 18
+ 0.629 8 11 cbr 500 ------- 0 8.0 1.0 119 119
d 0.629 8 11 cbr 500 ------- 0 8.0 1.0 119 119
h 0.629 8 11 cbr 500 ------- 0 8.0 1.0 129 129
r 0.629364 11 5 cbr 500 ------- 0 8.0 1.0 51 51
+ 0.629364 5 4 cbr 500 ------- 0 8.0 1.0 51 51
- 0.629928 8 11 cbr 500 ------- 0 8.0 1.0 57 57
+ 0.63 8 11 cbr 500 ------- 0 8.0 1.0 120 120
h 0.63 8 11 cbr 500 ------- 0 8.0 1.0 130 130
+ 0.63006 4 10 cbr 500 ------- 0 8.0 1.0 16 16
- 0.63006 4 10 cbr 500 ------- 0 8.0 1.0 16 16
- 0.63006 5 4 cbr 500 ------- 0 8.0 1.0 27 27
r 0.63012 10 1 cbr 500 ------- 0 8.0 1.0 13 13
+ 0.631 8 11 cbr 500 ------- 0 8.0 1.0 121 121
d 0.631 8 11 cbr 500 ------- 0 8.0 1.0 121 121
h 0.631 8 11 cbr 500 ------- 0 8.0 1.0 131 131
r 0.631468 11 5 cbr 500 ------- 0 8.0 1.0 52 52
+ 0.631468 5 4 cbr 500 ------- 0 8.0 1.0 52 52
+ 0.632 8 11 cbr 500 ------- 0 8.0 1.0 122 122
d 0.632 8 11 cbr 500 ------- 0 8.0 1.0 122 122
h 0.632 8 11 cbr 500 ------- 0 8.0 1.0 132 132
- 0.632032 8 11 cbr 500 ------- 0 8.0 1.0 58 58
r 0.63206 5 4 cbr 500 ------- 0 8.0 1.0 19 19
h 0.63206 4 10 cbr 500 ------- 0 8.0 1.0 19 19
+ 0.633 8 11 cbr 500 ------- 0 8.0 1.0 123 123
h 0.633 8 11 cbr 500 ------- 0 8.0 1.0 133 133
r 0.633572 11 5 cbr 500 ------- 0 8.0 1.0 53 53
+ 0.633572 5 4 cbr 500 ------- 0 8.0 1.0 53 53
+ 0.634 8 11 cbr 500 ------- 0 8.0 1.0 124 124
d 0.634 8 11 cbr 500 ------- 0 8.0 1.0 124 124
h 0.634 8 11 cbr 500 ------- 0 8.0 1.0 134 134
+ 0.63406 4 10 cbr 500 ------- 0 8.0 1.0 17 17
- 0.63406 4 10 cbr 500 ------- 0 8.0 1.0 17 17
- 0.63406 5 4 cbr 500 ------- 0 8.0 1.0 28 28
r 0.63412 10 1 cbr 500 ------- 0 8.0 1.0 14 14
- 0.634136 8 11 cbr 500 ------- 0 8.0 1.0 59 59
+ 0.635 8 11 cbr 500 ------- 0 8.0 1.0 125 125
h 0.635 8 11 cbr 500 ------- 0 8.0 1.0 135 135
r 0.635676 11 5 cbr 500 ------- 0 8.0 1.0 54 54
+ 0.635676 5 4 cbr 500 ------- 0 8.0 1.0 54 54
+ 0.636 8 11 cbr 500 ------- 0 8.0 1.0 126 126
d 0.636 8 11 cbr 500 ------- 0 8.0 1.0 126 126
h 0.636 8 11 cbr 500 ------- 0 8.0 1.0 136 136
r 0.63606 5 4 cbr 500 ------- 0 8.0 1.0 20 20
h 0.63606 4 10 cbr 500 ------- 0 8.0 1.0 20 20
- 0.63624 8 11 cbr 500 ------- 0 8.0 1.0 60 60
+ 0.637 8 11 cbr 500 ------- 0 8.0 1.0 127 127
h 0.637 8 11 cbr 500 ------- 0 8.0 1.0 137 137
r 0.63778 11 5 cbr 500 ------- 0 8.0 1.0 55 55
+ 0.63778 5 4 cbr 500 ------- 0 8.0 1.0 55 55
+ 0.638 8 11 cbr 500 ------- 0 8.0 1.0 128 128
d 0.638 8 11 cbr 500 ------- 0 8.0 1.0 128 128
h 0.638 8 11 cbr 500 ------- 0 8.0 1.0 138 138
+ 0.63806 4 10 cbr 500 ------- 0 8.0 1.0 18 18
- 0.63806 4 10 cbr 500 ------- 0 8.0 1.0 18 18
- 0.63806 5 4 cbr 500 ------- 0 8.0 1.0 29 29
r 0.63812 10 1 cbr 500 ------- 0 8.0 1.0 15 15
- 0.638344 8 11 cbr 500 ------- 0 8.0 1.0 61 61
+ 0.639 8 11 cbr 500 ------- 0 8.0 1.0 129 129
h 0.639 8 11 cbr 500 ------- 0 8.0 1.0 139 139
r 0.639884 11 5 cbr 500 ------- 0 8.0 1.0 56 56
+ 0.639884 5 4 cbr 500 ------- 0 8.0 1.0 56 56
+ 0.64 8 11 cbr 500 ------- 0 8.0 1.0 130 130
d 0.64 8 11 cbr 500 ------- 0 8.0 1.0 130 130
h 0.64 8 11 cbr 500 ------- 0 8.0 1.0 140 140
r 0.64006 5 4 cbr 500 ------- 0 8.0 1.0 21 21
h 0.64006 4 10 cbr 500 ------- 0 8.0 1.0 21 21
- 0.640448 8 11 cbr 500 ------- 0 8.0 1.0 62 62
+ 0.641 8 11 cbr 500 ------- 0 8.0 1.0 131 131
h 0.641 8 11 cbr 500 ------- 0 8.0 1.0 141 141
r 0.641988 11 5 cbr 500 ------- 0 8.0 1.0 57 57
+ 0.641988 5 4 cbr 500 ------- 0 8.0 1.0 57 57
+ 0.642 8 11 cbr 500 ------- 0 8.0 1.0 132 132
d 0.642 8 11 cbr 500 ------- 0 8.0 1.0 132 132
h 0.642 8 11 cbr 500 ------- 0 8.0 1.0 142 142
+ 0.64206 4 10 cbr 500 ------- 0 8.0 1.0 19 19
- 0.64206 4 10 cbr 500 ------- 0 8.0 1.0 19 19
- 0.64206 5 4 cbr 500 ------- 0 8.0 1.0 30 30
r 0.64212 10 1 cbr 500 ------- 0 8.0 1.0 16 16
- 0.642552 8 11 cbr 500 ------- 0 8.0 1.0 63 63
+ 0.643 8 11 cbr 500 ------- 0 8.0 1.0 133 133
h 0.643 8 11 cbr 500 ------- 0 8.0 1.0 143 143
+ 0.644 8 11 cbr 500 ------- 0 8.0 1.0 134 134
d 0.644 8 11 cbr 500 ------- 0 8.0 1.0 134 134
h 0.644 8 11 cbr 500 ------- 0 8.0 1.0 144 144
r 0.64406 5 4 cbr 500 ------- 0 8.0 1.0 22 22
h 0.64406 4 10 cbr 500 ------- 0 8.0 1.0 22 22
r 0.644092 11 5 cbr 500 ------- 0 8.0 1.0 58 58
+ 0.644092 5 4 cbr 500 ------- 0 8.0 1.0 58 58
- 0.644656 8 11 cbr 500 ------- 0 8.0 1.0 64 64
+ 0.645 8 11 cbr 500 ------- 0 8.0 1.0 135 135
h 0.645 8 11 cbr 500 ------- 0 8.0 1.0 145 145
+ 0.646 8 11 cbr 500 ------- 0 8.0 1.0 136 136
d 0.646 8 11 cbr 500 ------- 0 8.0 1.0 136 136
h 0.646 8 11 cbr 500 ------- 0 8.0 1.0 146 146
+ 0.64606 4 10 cbr 500 ------- 0 8.0 1.0 20 20
- 0.64606 4 10 cbr 500 ------- 0 8.0 1.0 20 20
- 0.64606 5 4 cbr 500 ------- 0 8.0 1.0 31 31
r 0.64612 10 1 cbr 500 ------- 0 8.0 1.0 17 17
r 0.646196 11 5 cbr 500 ------- 0 8.0 1.0 59 59
+ 0.646196 5 4 cbr 500 ------- 0 8.0 1.0 59 59
- 0.64676 8 11 cbr 500 ------- 0 8.0 1.0 65 65
+ 0.647 8 11 cbr 500 ------- 0 8.0 1.0 137 137
h 0.647 8 11 cbr 500 ------- 0 8.0 1.0 147 147
+ 0.648 8 11 cbr 500 ------- 0 8.0 1.0 138 138
d 0.648 8 11 cbr 500 ------- 0 8.0 1.0 138 138
h 0.648 8 11 cbr 500 ------- 0 8.0 1.0 148 148
r 0.64806 5 4 cbr 500 ------- 0 8.0 1.0 23 23
h 0.64806 4 10 cbr 500 ------- 0 8.0 1.0 23 23
r 0.6483 11 5 cbr 500 ------- 0 8.0 1.0 60 60
+ 0.6483 5 4 cbr 500 ------- 0 8.0 1.0 60 60
- 0.648864 8 11 cbr 500 ------- 0 8.0 1.0 66 66
+ 0.649 8 11 cbr 500 ------- 0 8.0 1.0 139 139
h 0.649 8 11 cbr 500 ------- 0 8.0 1.0 149 149
+ 0.65 8 11 cbr 500 ------- 0 8.0 1.0 140 140
d 0.65 8 11 cbr 500 ------- 0 8.0 1.0 140 140
h 0.65 8 11 cbr 500 ------- 0 8.0 1.0 150 150
+ 0.65006 4 10 cbr 500 ------- 0 8.0 1.0 21 21
- 0.65006 4 10 cbr 500 ------- 0 8.0 1.0 21 21
- 0.65006 5 4 cbr 500 ------- 0 8.0 1.0 32 32
r 0.65012 10 1 cbr 500 ------- 0 8.0 1.0 18 18
r 0.650404 11 5 cbr 500 ------- 0 8.0 1.0 61 61