V -t * -v 1.0a5 -a 0
A -t * -n 1 -p 0 -o 0x7fffffff -c 30 -a 1
A -t * -h 1 -m 1073741823 -s 0
n -t * -a 0 -s 0 -S UP -v circle -c black -i black
n -t * -a 1 -s 1 -S UP -v circle -c black -i black
n -t * -a 2 -s 2 -S UP -v circle -c black -i black
l -t * -s 0 -d 2 -S UP -r 2000000 -D 0.01 -c black -o right-down
l -t * -s 1 -d 2 -S UP -r 2000000 -D 0.01 -c black -o right-up
+ -t 0.5 -s 1 -d 2 -p cbr -e 1000 -c 2 -i 0 -a 2 -x {1.0 2.1 0 ------- null}
- -t 0.5 -s 1 -d 2 -p cbr -e 1000 -c 2 -i 0 -a 2 -x {1.0 2.1 0 ------- null}
h -t 0.5 -s 1 -d 2 -p cbr -e 1000 -c 2 -i 0 -a 2 -x {1.0 2.1 -1 ------- null}
r -t 0.514 -s 1 -d 2 -p cbr -e 1000 -c 2 -i 0 -a 2 -x {1.0 2.1 0 ------- null}
+ -t 0.514285714285714 -s 1 -d 2 -p cbr -e 1000 -c 2 -i 1 -a 2 -x {1.0 2.1 1 ------- null}
- -t 0.514285714285714 -s 1 -d 2 -p cbr -e 1000 -c 2 -i 1 -a 2 -x {1.0 2.1 1 ------- null}
h -t 0.514285714285714 -s 1 -d 2 -p cbr -e 1000 -c 2 -i 1 -a 2 -x {1.0 2.1 -1 ------- null}
r -t 0.528285714285714 -s 1 -d 2 -p cbr -e 1000 -c 2 -i 1 -a 2 -x {1.0 2.1 1 ------- null}
+ -t 0.528571428571428 -s 1 -d 2 -p cbr -e 1000 -c 2 -i 2 -a 2 -x {1.0 2.1 2 ------- null}
- -t 0.528571428571428 -s 1 -d 2 -p cbr -e 1000 -c 2 -i 2 -a 2 -x {1.0 2.1 2 ------- null}
h -t 0.528571428571428 -s 1 -d 2 -p cbr -e 1000 -c 2 -i 2 -a 2 -x {1.0 2.1 -1 ------- null}
r -t 0.542571428571428 -s 1 -d 2 -p cbr -e 1000 -c 2 -i 2 -a 2 -x {1.0 2.1 2 ------- null}
+ -t 0.542857142857143 -s 1 -d 2 -p cbr -e 1000 -c 2 -i 3 -a 2 -x {1.0 2.1 3 ------- null}
- -t 0.542857142857143 -s 1 -d 2 -p cbr -e 1000 -c 2 -i 3 -a 2 -x {1.0 2.1 3 ------- null}
h -t 0.542857142857143 -s 1 -d 2 -p cbr -e 1000 -c 2 -i 3 -a 2 -x {1.0 2.1 -1 ------- null}
r -t 0.556857142857143 -s 1 -d 2 -p cbr -e 1000 -c 2 -i 3 -a 2 -x {1.0 2.1 3 ------- null}
+ -t 0.557142857142857 -s 1 -d 2 -p cbr -e 1000 -c 2 -i 4 -a 2 -x {1.0 2.1 4 ------- null}
- -t 0.557142857142857 -s 1 -d 2 -p cbr -e 1000 -c 2 -i 4 -a 2 -x {1.0 2.1 4 ------- null}
h -t 0.557142857142857 -s 1 -d 2 -p cbr -e 1000 -c 2 -i 4 -a 2 -x {1.0 2.1 -1 ------- null}
r -t 0.571142857142857 -s 1 -d 2 -p cbr -e 1000 -c 2 -i 4 -a 2 -x {1.0 2.1 4 ------- null}
+ -t 0.571428571428571 -s 1 -d 2 -p cbr -e 1000 -c 2 -i 5 -a 2 -x {1.0 2.1 5 ------- null}
- -t 0.571428571428571 -s 1 -d 2 -p cbr -e 1000 -c 2 -i 5 -a 2 -x {1.0 2.1 5 ------- null}
h -t 0.571428571428571 -s 1 -d 2 -p cbr -e 1000 -c 2 -i 5 -a 2 -x {1.0 2.1 -1 ------- null}
r -t 0.585428571428571 -s 1 -d 2 -p cbr -e 1000 -c 2 -i 5 -a 2 -x {1.0 2.1 5 ------- null}
+ -t 0.585714285714285 -s 1 -d 2 -p cbr -e 1000 -c 2 -i 6 -a 2 -x {1.0 2.1 6 ------- null}
- -t 0.585714285714285 -s 1 -d 2 -p cbr -e 1000 -c 2 -i 6 -a 2 -x {1.0 2.1 6 ------- null}
h -t 0.585714285714285 -s 1 -d 2 -p cbr -e 1000 -c 2 -i 6 -a 2 -x {1.0 2.1 -1 ------- null}
r -t 0.599714285714285 -s 1 -d 2 -p cbr -e 1000 -c 2 -i 6 -a 2 -x {1.0 2.1 6 ------- null}
+ -t 0.6 -s 1 -d 2 -p cbr -e 1000 -c 2 -i 7 -a 2 -x {1.0 2.1 7 ------- null}
- -t 0.6 -s 1 -d 2 -p cbr -e 1000 -c 2 -i 7 -a 2 -x {1.0 2.1 7 ------- null}
h -t 0.6 -s 1 -d 2 -p cbr -e 1000 -c 2 -i 7 -a 2 -x {1.0 2.1 -1 ------- null}
r -t 0.614 -s 1 -d 2 -p cbr -e 1000 -c 2 -i 7 -a 2 -x {1.0 2.1 7 ------- null}
+ -t 0.614285714285714 -s 1 -d 2 -p cbr -e 1000 -c 2 -i 8 -a 2 -x {1.0 2.1 8 ------- null}
- -t 0.614285714285714 -s 1 -d 2 -p cbr -e 1000 -c 2 -i 8 -a 2 -x {1.0 2.1 8 ------- null}
h -t 0.614285714285714 -s 1 -d 2 -p cbr -e 1000 -c 2 -i 8 -a 2 -x {1.0 2.1 -1 ------- null}
r -t 0.628285714285714 -s 1 -d 2 -p cbr -e 1000 -c 2 -i 8 -a 2 -x {1.0 2.1 8 ------- null}
+ -t 0.628571428571428 -s 1 -d 2 -p cbr -e 1000 -c 2 -i 9 -a 2 -x {1.0 2.1 9 ------- null}
- -t 0.628571428571428 -s 1 -d 2 -p cbr -e 1000 -c 2 -i 9 -a 2 -x {1.0 2.1 9 ------- null}
h -t 0.628571428571428 -s 1 -d 2 -p cbr -e 1000 -c 2 -i 9 -a 2 -x {1.0 2.1 -1 ------- null}
r -t 0.642571428571428 -s 1 -d 2 -p cbr -e 1000 -c 2 -i 9 -a 2 -x {1.0 2.1 9 ------- null}
+ -t 0.642857142857142 -s 1 -d 2 -p cbr -e 1000 -c 2 -i 10 -a 2 -x {1.0 2.1 10 ------- null}
- -t 0.642857142857142 -s 1 -d 2 -p cbr -e 1000 -c 2 -i 10 -a 2 -x {1.0 2.1 10 ------- null}
h -t 0.642857142857142 -s 1 -d 2 -p cbr -e 1000 -c 2 -i 10 -a 2 -x {1.0 2.1 -1 ------- null}
r -t 0.656857142857142 -s 1 -d 2 -p cbr -e 1000 -c 2 -i 10 -a 2 -x {1.0 2.1 10 ------- null}
+ -t 0.657142857142857 -s 1 -d 2 -p cbr -e 1000 -c 2 -i 11 -a 2 -x {1.0 2.1 11 ------- null}
- -t 0.657142857142857 -s 1 -d 2 -p cbr -e 1000 -c 2 -i 11 -a 2 -x {1.0 2.1 11 ------- null}
h -t 0.657142857142857 -s 1 -d 2 -p cbr -e 1000 -c 2 -i 11 -a 2 -x {1.0 2.1 -1 ------- null}
r -t 0.671142857142857 -s 1 -d 2 -p cbr -e 1000 -c 2 -i 11 -a 2 -x {1.0 2.1 11 ------- null}
+ -t 0.671428571428571 -s 1 -d 2 -p cbr -e 1000 -c 2 -i 12 -a 2 -x {1.0 2.1 12 ------- null}
- -t 0.671428571428571 -s 1 -d 2 -p cbr -e 1000 -c 2 -i 12 -a 2 -x {1.0 2.1 12 ------- null}
h -t 0.671428571428571 -s 1 -d 2 -p cbr -e 1000 -c 2 -i 12 -a 2 -x {1.0 2.1 -1 ------- null}
r -t 0.685428571428571 -s 1 -d 2 -p cbr -e 1000 -c 2 -i 12 -a 2 -x {1.0 2.1 12 ------- null}
+ -t 0.685714285714285 -s 1 -d 2 -p cbr -e 1000 -c 2 -i 13 -a 2 -x {1.0 2.1 13 ------- null}
- -t 0.685714285714285 -s 1 -d 2 -p cbr -e 1000 -c 2 -i 13 -a 2 -x {1.0 2.1 13 ------- null}
h -t 0.685714285714285 -s 1 -d 2 -p cbr -e 1000 -c 2 -i 13 -a 2 -x {1.0 2.1 -1 ------- null}
r -t 0.699714285714285 -s 1 -d 2 -p cbr -e 1000 -c 2 -i 13 -a 2 -x {1.0 2.1 13 ------- null}
+ -t 0.699999999999999 -s 1 -d 2 -p cbr -e 1000 -c 2 -i 14 -a 2 -x {1.0 2.1 14 ------- null}
- -t 0.699999999999999 -s 1 -d 2 -p cbr -e 1000 -c 2 -i 14 -a 2 -x {1.0 2.1 14 ------- null}
h -t 0.699999999999999 -s 1 -d 2 -p cbr -e 1000 -c 2 -i 14 -a 2 -x {1.0 2.1 -1 ------- null}
r -t 0.713999999999999 -s 1 -d 2 -p cbr -e 1000 -c 2 -i 14 -a 2 -x {1.0 2.1 14 ------- null}
+ -t 0.714285714285714 -s 1 -d 2 -p cbr -e 1000 -c 2 -i 15 -a 2 -x {1.0 2.1 15 ------- null}
- -t 0.714285714285714 -s 1 -d 2 -p cbr -e 1000 -c 2 -i 15 -a 2 -x {1.0 2.1 15 ------- null}
h -t 0.714285714285714 -s 1 -d 2 -p cbr -e 1000 -c 2 -i 15 -a 2 -x {1.0 2.1 -1 ------- null}
r -t 0.728285714285714 -s 1 -d 2 -p cbr -e 1000 -c 2 -i 15 -a 2 -x {1.0 2.1 15 ------- null}
+ -t 0.728571428571428 -s 1 -d 2 -p cbr -e 1000 -c 2 -i 16 -a 2 -x {1.0 2.1 16 ------- null}
- -t 0.728571428571428 -s 1 -d 2 -p cbr -e 1000 -c 2 -i 16 -a 2 -x {1.0 2.1 16 ------- null}
h -t 0.728571428571428 -s 1 -d 2 -p cbr -e 1000 -c 2 -i 16 -a 2 -x {1.0 2.1 -1 ------- null}
r -t 0.742571428571428 -s 1 -d 2 -p cbr -e 1000 -c 2 -i 16 -a 2 -x {1.0 2.1 16 ------- null}
+ -t 0.742857142857142 -s 1 -d 2 -p cbr -e 1000 -c 2 -i 17 -a 2 -x {1.0 2.1 17 ------- null}
- -t 0.742857142857142 -s 1 -d 2 -p cbr -e 1000 -c 2 -i 17 -a 2 -x {1.0 2.1 17 ------- null}
h -t 0.742857142857142 -s 1 -d 2 -p cbr -e 1000 -c 2 -i 17 -a 2 -x {1.0 2.1 -1 ------- null}
r -t 0.756857142857142 -s 1 -d 2 -p cbr -e 1000 -c 2 -i 17 -a 2 -x {1.0 2.1 17 ------- null}
+ -t 0.757142857142856 -s 1 -d 2 -p cbr -e 1000 -c 2 -i 18 -a 2 -x {1.0 2.1 18 ------- null}
- -t 0.757142857142856 -s 1 -d 2 -p cbr -e 1000 -c 2 -i 18 -a 2 -x {1.0 2.1 18 ------- null}
h -t 0.757142857142856 -s 1 -d 2 -p cbr -e 1000 -c 2 -i 18 -a 2 -x {1.0 2.1 -1 ------- null}
r -t 0.771142857142856 -s 1 -d 2 -p cbr -e 1000 -c 2 -i 18 -a 2 -x {1.0 2.1 18 ------- null}
+ -t 0.77142857142857 -s 1 -d 2 -p cbr -e 1000 -c 2 -i 19 -a 2 -x {1.0 2.1 19 ------- null}
- -t 0.77142857142857 -s 1 -d 2 -p cbr -e 1000 -c 2 -i 19 -a 2 -x {1.0 2.1 19 ------- null}
h -t 0.77142857142857 -s 1 -d 2 -p cbr -e 1000 -c 2 -i 19 -a 2 -x {1.0 2.1 -1 ------- null}
r -t 0.78542857142857 -s 1 -d 2 -p cbr -e 1000 -c 2 -i 19 -a 2 -x {1.0 2.1 19 ------- null}
+ -t 0.785714285714285 -s 1 -d 2 -p cbr -e 1000 -c 2 -i 20 -a 2 -x {1.0 2.1 20 ------- null}
- -t 0.785714285714285 -s 1 -d 2 -p cbr -e 1000 -c 2 -i 20 -a 2 -x {1.0 2.1 20 ------- null}
h -t 0.785714285714285 -s 1 -d 2 -p cbr -e 1000 -c 2 -i 20 -a 2 -x {1.0 2.1 -1 ------- null}
r -t 0.799714285714285 -s 1 -d 2 -p cbr -e 1000 -c 2 -i 20 -a 2 -x {1.0 2.1 20 ------- null}
+ -t 0.799999999999999 -s 1 -d 2 -p cbr -e 1000 -c 2 -i 21 -a 2 -x {1.0 2.1 21 ------- null}
- -t 0.799999999999999 -s 1 -d 2 -p cbr -e 1000 -c 2 -i 21 -a 2 -x {1.0 2.1 21 ------- null}
h -t 0.799999999999999 -s 1 -d 2 -p cbr -e 1000 -c 2 -i 21 -a 2 -x {1.0 2.1 -1 ------- null}
r -t 0.813999999999999 -s 1 -d 2 -p cbr -e 1000 -c 2 -i 21 -a 2 -x {1.0 2.1 21 ------- null}
+ -t 0.814285714285713 -s 1 -d 2 -p cbr -e 1000 -c 2 -i 22 -a 2 -x {1.0 2.1 22 ------- null}
- -t 0.814285714285713 -s 1 -d 2 -p cbr -e 1000 -c 2 -i 22 -a 2 -x {1.0 2.1 22 ------- null}
h -t 0.814285714285713 -s 1 -d 2 -p cbr -e 1000 -c 2 -i 22 -a 2 -x {1.0 2.1 -1 ------- null}
r -t 0.828285714285713 -s 1 -d 2 -p cbr -e 1000 -c 2 -i 22 -a 2 -x {1.0 2.1 22 ------- null}
+ -t 0.828571428571427 -s 1 -d 2 -p cbr -e 1000 -c 2 -i 23 -a 2 -x {1.0 2.1 23 ------- null}
- -t 0.828571428571427 -s 1 -d 2 -p cbr -e 1000 -c 2 -i 23 -a 2 -x {1.0 2.1 23 ------- null}
h -t 0.828571428571427 -s 1 -d 2 -p cbr -e 1000 -c 2 -i 23 -a 2 -x {1.0 2.1 -1 ------- null}
r -t 0.842571428571427 -s 1 -d 2 -p cbr -e 1000 -c 2 -i 23 -a 2 -x {1.0 2.1 23 ------- null}
+ -t 0.842857142857142 -s 1 -d 2 -p cbr -e 1000 -c 2 -i 24 -a 2 -x {1.0 2.1 24 ------- null}
- -t 0.842857142857142 -s 1 -d 2 -p cbr -e 1000 -c 2 -i 24 -a 2 -x {1.0 2.1 24 ------- null}
h -t 0.842857142857142 -s 1 -d 2 -p cbr -e 1000 -c 2 -i 24 -a 2 -x {1.0 2.1 -1 ------- null}
r -t 0.856857142857142 -s 1 -d 2 -p cbr -e 1000 -c 2 -i 24 -a 2 -x {1.0 2.1 24 ------- null}
+ -t 0.857142857142856 -s 1 -d 2 -p cbr -e 1000 -c 2 -i 25 -a 2 -x {1.0 2.1 25 ------- null}
- -t 0.857142857142856 -s 1 -d 2 -p cbr -e 1000 -c 2 -i 25 -a 2 -x {1.0 2.1 25 ------- null}
h -t 0.857142857142856 -s 1 -d 2 -p cbr -e 1000 -c 2 -i 25 -a 2 -x {1.0 2.1 -1 ------- null}
r -t 0.871142857142856 -s 1 -d 2 -p cbr -e 1000 -c 2 -i 25 -a 2 -x {1.0 2.1 25 ------- null}
+ -t 0.87142857142857 -s 1 -d 2 -p cbr -e 1000 -c 2 -i 26 -a 2 -x {1.0 2.1 26 ------- null}
- -t 0.87142857142857 -s 1 -d 2 -p cbr -e 1000 -c 2 -i 26 -a 2 -x {1.0 2.1 26 ------- null}
h -t 0.87142857142857 -s 1 -d 2 -p cbr -e 1000 -c 2 -i 26 -a 2 -x {1.0 2.1 -1 ------- null}
r -t 0.88542857142857 -s 1 -d 2 -p cbr -e 1000 -c 2 -i 26 -a 2 -x {1.0 2.1 26 ------- null}
+ -t 0.885714285714284 -s 1 -d 2 -p cbr -e 1000 -c 2 -i 27 -a 2 -x {1.0 2.1 27 ------- null}
- -t 0.885714285714284 -s 1 -d 2 -p cbr -e 1000 -c 2 -i 27 -a 2 -x {1.0 2.1 27 ------- null}
h -t 0.885714285714284 -s 1 -d 2 -p cbr -e 1000 -c 2 -i 27 -a 2 -x {1.0 2.1 -1 ------- null}
r -t 0.899714285714284 -s 1 -d 2 -p cbr -e 1000 -c 2 -i 27 -a 2 -x {1.0 2.1 27 ------- null}
+ -t 0.899999999999999 -s 1 -d 2 -p cbr -e 1000 -c 2 -i 28 -a 2 -x {1.0 2.1 28 ------- null}
- -t 0.899999999999999 -s 1 -d 2 -p cbr -e 1000 -c 2 -i 28 -a 2 -x {1.0 2.1 28 ------- null}
h -t 0.899999999999999 -s 1 -d 2 -p cbr -e 1000 -c 2 -i 28 -a 2 -x {1.0 2.1 -1 ------- null}
r -t 0.913999999999999 -s 1 -d 2 -p cbr -e 1000 -c 2 -i 28 -a 2 -x {1.0 2.1 28 ------- null}
+ -t 0.914285714285713 -s 1 -d 2 -p cbr -e 1000 -c 2 -i 29 -a 2 -x {1.0 2.1 29 ------- null}
- -t 0.914285714285713 -s 1 -d 2 -p cbr -e 1000 -c 2 -i 29 -a 2 -x {1.0 2.1 29 ------- null}
h -t 0.914285714285713 -s 1 -d 2 -p cbr -e 1000 -c 2 -i 29 -a 2 -x {1.0 2.1 -1 ------- null}
r -t 0.928285714285713 -s 1 -d 2 -p cbr -e 1000 -c 2 -i 29 -a 2 -x {1.0 2.1 29 ------- null}
+ -t 0.928571428571427 -s 1 -d 2 -p cbr -e 1000 -c 2 -i 30 -a 2 -x {1.0 2.1 30 ------- null}
- -t 0.928571428571427 -s 1 -d 2 -p cbr -e 1000 -c 2 -i 30 -a 2 -x {1.0 2.1 30 ------- null}
h -t 0.928571428571427 -s 1 -d 2 -p cbr -e 1000 -c 2 -i 30 -a 2 -x {1.0 2.1 -1 ------- null}
r -t 0.942571428571427 -s 1 -d 2 -p cbr -e 1000 -c 2 -i 30 -a 2 -x {1.0 2.1 30 ------- null}
+ -t 0.942857142857141 -s 1 -d 2 -p cbr -e 1000 -c 2 -i 31 -a 2 -x {1.0 2.1 31 ------- null}
- -t 0.942857142857141 -s 1 -d 2 -p cbr -e 1000 -c 2 -i 31 -a 2 -x {1.0 2.1 31 ------- null}
h -t 0.942857142857141 -s 1 -d 2 -p cbr -e 1000 -c 2 -i 31 -a 2 -x {1.0 2.1 -1 ------- null}
r -t 0.956857142857141 -s 1 -d 2 -p cbr -e 1000 -c 2 -i 31 -a 2 -x {1.0 2.1 31 ------- null}
+ -t 0.957142857142856 -s 1 -d 2 -p cbr -e 1000 -c 2 -i 32 -a 2 -x {1.0 2.1 32 ------- null}
- -t 0.957142857142856 -s 1 -d 2 -p cbr -e 1000 -c 2 -i 32 -a 2 -x {1.0 2.1 32 ------- null}
h -t 0.957142857142856 -s 1 -d 2 -p cbr -e 1000 -c 2 -i 32 -a 2 -x {1.0 2.1 -1 ------- null}
r -t 0.971142857142856 -s 1 -d 2 -p cbr -e 1000 -c 2 -i 32 -a 2 -x {1.0 2.1 32 ------- null}
+ -t 0.97142857142857 -s 1 -d 2 -p cbr -e 1000 -c 2 -i 33 -a 2 -x {1.0 2.1 33 ------- null}
- -t 0.97142857142857 -s 1 -d 2 -p cbr -e 1000 -c 2 -i 33 -a 2 -x {1.0 2.1 33 ------- null}
h -t 0.97142857142857 -s 1 -d 2 -p cbr -e 1000 -c 2 -i 33 -a 2 -x {1.0 2.1 -1 ------- null}
r -t 0.98542857142857 -s 1 -d 2 -p cbr -e 1000 -c 2 -i 33 -a 2 -x {1.0 2.1 33 ------- null}
+ -t 0.985714285714284 -s 1 -d 2 -p cbr -e 1000 -c 2 -i 34 -a 2 -x {1.0 2.1 34 ------- null}
- -t 0.985714285714284 -s 1 -d 2 -p cbr -e 1000 -c 2 -i 34 -a 2 -x {1.0 2.1 34 ------- null}
h -t 0.985714285714284 -s 1 -d 2 -p cbr -e 1000 -c 2 -i 34 -a 2 -x {1.0 2.1 -1 ------- null}
r -t 0.999714285714284 -s 1 -d 2 -p cbr -e 1000 -c 2 -i 34 -a 2 -x {1.0 2.1 34 ------- null}
+ -t 0.999999999999998 -s 1 -d 2 -p cbr -e 1000 -c 2 -i 35 -a 2 -x {1.0 2.1 35 ------- null}
- -t 0.999999999999998 -s 1 -d 2 -p cbr -e 1000 -c 2 -i 35 -a 2 -x {1.0 2.1 35 ------- null}
h -t 0.999999999999998 -s 1 -d 2 -p cbr -e 1000 -c 2 -i 35 -a 2 -x {1.0 2.1 -1 ------- null}
+ -t 1 -s 0 -d 2 -p tcp -e 40 -c 1 -i 36 -a 1 -x {0.0 2.0 0 ------- null}
- -t 1 -s 0 -d 2 -p tcp -e 40 -c 1 -i 36 -a 1 -x {0.0 2.0 0 ------- null}
h -t 1 -s 0 -d 2 -p tcp -e 40 -c 1 -i 36 -a 1 -x {0.0 2.0 -1 ------- null}
r -t 1.01016 -s 0 -d 2 -p tcp -e 40 -c 1 -i 36 -a 1 -x {0.0 2.0 0 ------- null}
+ -t 1.01016 -s 2 -d 0 -p ack -e 40 -c 1 -i 37 -a 1 -x {2.0 0.0 0 ------- null}
- -t 1.01016 -s 2 -d 0 -p ack -e 40 -c 1 -i 37 -a 1 -x {2.0 0.0 0 ------- null}
h -t 1.01016 -s 2 -d 0 -p ack -e 40 -c 1 -i 37 -a 1 -x {2.0 0.0 -1 ------- null}
r -t 1.014 -s 1 -d 2 -p cbr -e 1000 -c 2 -i 35 -a 2 -x {1.0 2.1 35 ------- null}
+ -t 1.01428571428571 -s 1 -d 2 -p cbr -e 1000 -c 2 -i 38 -a 2 -x {1.0 2.1 36 ------- null}
- -t 1.01428571428571 -s 1 -d 2 -p cbr -e 1000 -c 2 -i 38 -a 2 -x {1.0 2.1 36 ------- null}
h -t 1.01428571428571 -s 1 -d 2 -p cbr -e 1000 -c 2 -i 38 -a 2 -x {1.0 2.1 -1 ------- null}
r -t 1.02032 -s 2 -d 0 -p ack -e 40 -c 1 -i 37 -a 1 -x {2.0 0.0 0 ------- null}
+ -t 1.02032 -s 0 -d 2 -p tcp -e 1040 -c 1 -i 39 -a 1 -x {0.0 2.0 1 ------- null}
- -t 1.02032 -s 0 -d 2 -p tcp -e 1040 -c 1 -i 39 -a 1 -x {0.0 2.0 1 ------- null}
h -t 1.02032 -s 0 -d 2 -p tcp -e 1040 -c 1 -i 39 -a 1 -x {0.0 2.0 -1 ------- null}
+ -t 1.02032 -s 0 -d 2 -p tcp -e 1040 -c 1 -i 40 -a 1 -x {0.0 2.0 2 ------- null}
- -t 1.02448 -s 0 -d 2 -p tcp -e 1040 -c 1 -i 40 -a 1 -x {0.0 2.0 2 ------- null}
h -t 1.02448 -s 0 -d 2 -p tcp -e 1040 -c 1 -i 40 -a 1 -x {0.0 2.0 -1 ------- null}
r -t 1.02828571428571 -s 1 -d 2 -p cbr -e 1000 -c 2 -i 38 -a 2 -x {1.0 2.1 36 ------- null}
+ -t 1.02857142857143 -s 1 -d 2 -p cbr -e 1000 -c 2 -i 41 -a 2 -x {1.0 2.1 37 ------- null}
- -t 1.02857142857143 -s 1 -d 2 -p cbr -e 1000 -c 2 -i 41 -a 2 -x {1.0 2.1 37 ------- null}
h -t 1.02857142857143 -s 1 -d 2 -p cbr -e 1000 -c 2 -i 41 -a 2 -x {1.0 2.1 -1 ------- null}
r -t 1.03448 -s 0 -d 2 -p tcp -e 1040 -c 1 -i 39 -a 1 -x {0.0 2.0 1 ------- null}
+ -t 1.03448 -s 2 -d 0 -p ack -e 40 -c 1 -i 42 -a 1 -x {2.0 0.0 1 ------- null}
- -t 1.03448 -s 2 -d 0 -p ack -e 40 -c 1 -i 42 -a 1 -x {2.0 0.0 1 ------- null}
h -t 1.03448 -s 2 -d 0 -p ack -e 40 -c 1 -i 42 -a 1 -x {2.0 0.0 -1 ------- null}
r -t 1.03864 -s 0 -d 2 -p tcp -e 1040 -c 1 -i 40 -a 1 -x {0.0 2.0 2 ------- null}
+ -t 1.03864 -s 2 -d 0 -p ack -e 40 -c 1 -i 43 -a 1 -x {2.0 0.0 2 ------- null}
- -t 1.03864 -s 2 -d 0 -p ack -e 40 -c 1 -i 43 -a 1 -x {2.0 0.0 2 ------- null}
h -t 1.03864 -s 2 -d 0 -p ack -e 40 -c 1 -i 43 -a 1 -x {2.0 0.0 -1 ------- null}
r -t 1.04257142857143 -s 1 -d 2 -p cbr -e 1000 -c 2 -i 41 -a 2 -x {1.0 2.1 37 ------- null}
+ -t 1.04285714285714 -s 1 -d 2 -p cbr -e 1000 -c 2 -i 44 -a 2 -x {1.0 2.1 38 ------- null}
- -t 1.04285714285714 -s 1 -d 2 -p cbr -e 1000 -c 2 -i 44 -a 2 -x {1.0 2.1 38 ------- null}
h -t 1.04285714285714 -s 1 -d 2 -p cbr -e 1000 -c 2 -i 44 -a 2 -x {1.0 2.1 -1 ------- null}
r -t 1.04464 -s 2 -d 0 -p ack -e 40 -c 1 -i 42 -a 1 -x {2.0 0.0 1 ------- null}
+ -t 1.04464 -s 0 -d 2 -p tcp -e 1040 -c 1 -i 45 -a 1 -x {0.0 2.0 3 ------- null}
- -t 1.04464 -s 0 -d 2 -p tcp -e 1040 -c 1 -i 45 -a 1 -x {0.0 2.0 3 ------- null}
h -t 1.04464 -s 0 -d 2 -p tcp -e 1040 -c 1 -i 45 -a 1 -x {0.0 2.0 -1 ------- null}
+ -t 1.04464 -s 0 -d 2 -p tcp -e 1040 -c 1 -i 46 -a 1 -x {0.0 2.0 4 ------- null}
r -t 1.0488 -s 2 -d 0 -p ack -e 40 -c 1 -i 43 -a 1 -x {2.0 0.0 2 ------- null}
+ -t 1.0488 -s 0 -d 2 -p tcp -e 1040 -c 1 -i 47 -a 1 -x {0.0 2.0 5 ------- null}
+ -t 1.0488 -s 0 -d 2 -p tcp -e 1040 -c 1 -i 48 -a 1 -x {0.0 2.0 6 ------- null}
- -t 1.0488 -s 0 -d 2 -p tcp -e 1040 -c 1 -i 46 -a 1 -x {0.0 2.0 4 ------- null}
h -t 1.0488 -s 0 -d 2 -p tcp -e 1040 -c 1 -i 46 -a 1 -x {0.0 2.0 -1 ------- null}
- -t 1.05296 -s 0 -d 2 -p tcp -e 1040 -c 1 -i 47 -a 1 -x {0.0 2.0 5 ------- null}
h -t 1.05296 -s 0 -d 2 -p tcp -e 1040 -c 1 -i 47 -a 1 -x {0.0 2.0 -1 ------- null}
r -t 1.05685714285714 -s 1 -d 2 -p cbr -e 1000 -c 2 -i 44 -a 2 -x {1.0 2.1 38 ------- null}
- -t 1.05712 -s 0 -d 2 -p tcp -e 1040 -c 1 -i 48 -a 1 -x {0.0 2.0 6 ------- null}
h -t 1.05712 -s 0 -d 2 -p tcp -e 1040 -c 1 -i 48 -a 1 -x {0.0 2.0 -1 ------- null}
+ -t 1.05714285714286 -s 1 -d 2 -p cbr -e 1000 -c 2 -i 49 -a 2 -x {1.0 2.1 39 ------- null}
- -t 1.05714285714286 -s 1 -d 2 -p cbr -e 1000 -c 2 -i 49 -a 2 -x {1.0 2.1 39 ------- null}
h -t 1.05714285714286 -s 1 -d 2 -p cbr -e 1000 -c 2 -i 49 -a 2 -x {1.0 2.1 -1 ------- null}
r -t 1.0588 -s 0 -d 2 -p tcp -e 1040 -c 1 -i 45 -a 1 -x {0.0 2.0 3 ------- null}
+ -t 1.0588 -s 2 -d 0 -p ack -e 40 -c 1 -i 50 -a 1 -x {2.0 0.0 3 ------- null}
- -t 1.0588 -s 2 -d 0 -p ack -e 40 -c 1 -i 50 -a 1 -x {2.0 0.0 3 ------- null}
h -t 1.0588 -s 2 -d 0 -p ack -e 40 -c 1 -i 50 -a 1 -x {2.0 0.0 -1 ------- null}
r -t 1.06296 -s 0 -d 2 -p tcp -e 1040 -c 1 -i 46 -a 1 -x {0.0 2.0 4 ------- null}
+ -t 1.06296 -s 2 -d 0 -p ack -e 40 -c 1 -i 51 -a 1 -x {2.0 0.0 4 ------- null}
- -t 1.06296 -s 2 -d 0 -p ack -e 40 -c 1 -i 51 -a 1 -x {2.0 0.0 4 ------- null}
h -t 1.06296 -s 2 -d 0 -p ack -e 40 -c 1 -i 51 -a 1 -x {2.0 0.0 -1 ------- null}
r -t 1.06712 -s 0 -d 2 -p tcp -e 1040 -c 1 -i 47 -a 1 -x {0.0 2.0 5 ------- null}
+ -t 1.06712 -s 2 -d 0 -p ack -e 40 -c 1 -i 52 -a 1 -x {2.0 0.0 5 ------- null}
- -t 1.06712 -s 2 -d 0 -p ack -e 40 -c 1 -i 52 -a 1 -x {2.0 0.0 5 ------- null}
h -t 1.06712 -s 2 -d 0 -p ack -e 40 -c 1 -i 52 -a 1 -x {2.0 0.0 -1 ------- null}
r -t 1.06896 -s 2 -d 0 -p ack -e 40 -c 1 -i 50 -a 1 -x {2.0 0.0 3 ------- null}
+ -t 1.06896 -s 0 -d 2 -p tcp -e 1040 -c 1 -i 53 -a 1 -x {0.0 2.0 7 ------- null}
- -t 1.06896 -s 0 -d 2 -p tcp -e 1040 -c 1 -i 53 -a 1 -x {0.0 2.0 7 ------- null}
h -t 1.06896 -s 0 -d 2 -p tcp -e 1040 -c 1 -i 53 -a 1 -x {0.0 2.0 -1 ------- null}
+ -t 1.06896 -s 0 -d 2 -p tcp -e 1040 -c 1 -i 54 -a 1 -x {0.0 2.0 8 ------- null}
r -t 1.07114285714286 -s 1 -d 2 -p cbr -e 1000 -c 2 -i 49 -a 2 -x {1.0 2.1 39 ------- null}
r -t 1.07128 -s 0 -d 2 -p tcp -e 1040 -c 1 -i 48 -a 1 -x {0.0 2.0 6 ------- null}
+ -t 1.07128 -s 2 -d 0 -p ack -e 40 -c 1 -i 55 -a 1 -x {2.0 0.0 6 ------- null}
- -t 1.07128 -s 2 -d 0 -p ack -e 40 -c 1 -i 55 -a 1 -x {2.0 0.0 6 ------- null}
h -t 1.07128 -s 2 -d 0 -p ack -e 40 -c 1 -i 55 -a 1 -x {2.0 0.0 -1 ------- null}
+ -t 1.07142857142857 -s 1 -d 2 -p cbr -e 1000 -c 2 -i 56 -a 2 -x {1.0 2.1 40 ------- null}
- -t 1.07142857142857 -s 1 -d 2 -p cbr -e 1000 -c 2 -i 56 -a 2 -x {1.0 2.1 40 ------- null}
h -t 1.07142857142857 -s 1 -d 2 -p cbr -e 1000 -c 2 -i 56 -a 2 -x {1.0 2.1 -1 ------- null}
r -t 1.07312 -s 2 -d 0 -p ack -e 40 -c 1 -i 51 -a 1 -x {2.0 0.0 4 ------- null}
+ -t 1.07312 -s 0 -d 2 -p tcp -e 1040 -c 1 -i 57 -a 1 -x {0.0 2.0 9 ------- null}
+ -t 1.07312 -s 0 -d 2 -p tcp -e 1040 -c 1 -i 58 -a 1 -x {0.0 2.0 10 ------- null}
- -t 1.07312 -s 0 -d 2 -p tcp -e 1040 -c 1 -i 54 -a 1 -x {0.0 2.0 8 ------- null}
h -t 1.07312 -s 0 -d 2 -p tcp -e 1040 -c 1 -i 54 -a 1 -x {0.0 2.0 -1 ------- null}
r -t 1.07728 -s 2 -d 0 -p ack -e 40 -c 1 -i 52 -a 1 -x {2.0 0.0 5 ------- null}
+ -t 1.07728 -s 0 -d 2 -p tcp -e 1040 -c 1 -i 59 -a 1 -x {0.0 2.0 11 ------- null}
+ -t 1.07728 -s 0 -d 2 -p tcp -e 1040 -c 1 -i 60 -a 1 -x {0.0 2.0 12 ------- null}
- -t 1.07728 -s 0 -d 2 -p tcp -e 1040 -c 1 -i 57 -a 1 -x {0.0 2.0 9 ------- null}
h -t 1.07728 -s 0 -d 2 -p tcp -e 1040 -c 1 -i 57 -a 1 -x {0.0 2.0 -1 ------- null}
r -t 1.08144 -s 2 -d 0 -p ack -e 40 -c 1 -i 55 -a 1 -x {2.0 0.0 6 ------- null}
+ -t 1.08144 -s 0 -d 2 -p tcp -e 1040 -c 1 -i 61 -a 1 -x {0.0 2.0 13 ------- null}
+ -t 1.08144 -s 0 -d 2 -p tcp -e 1040 -c 1 -i 62 -a 1 -x {0.0 2.0 14 ------- null}
- -t 1.08144 -s 0 -d 2 -p tcp -e 1040 -c 1 -i 58 -a 1 -x {0.0 2.0 10 ------- null}
h -t 1.08144 -s 0 -d 2 -p tcp -e 1040 -c 1 -i 58 -a 1 -x {0.0 2.0 -1 ------- null}
r -t 1.08312 -s 0 -d 2 -p tcp -e 1040 -c 1 -i 53 -a 1 -x {0.0 2.0 7 ------- null}
+ -t 1.08312 -s 2 -d 0 -p ack -e 40 -c 1 -i 63 -a 1 -x {2.0 0.0 7 ------- null}
- -t 1.08312 -s 2 -d 0 -p ack -e 40 -c 1 -i 63 -a 1 -x {2.0 0.0 7 ------- null}
h -t 1.08312 -s 2 -d 0 -p ack -e 40 -c 1 -i 63 -a 1 -x {2.0 0.0 -1 ------- null}
r -t 1.08542857142857 -s 1 -d 2 -p cbr -e 1000 -c 2 -i 56 -a 2 -x {1.0 2.1 40 ------- null}
- -t 1.0856 -s 0 -d 2 -p tcp -e 1040 -c 1 -i 59 -a 1 -x {0.0 2.0 11 ------- null}
h -t 1.0856 -s 0 -d 2 -p tcp -e 1040 -c 1 -i 59 -a 1 -x {0.0 2.0 -1 ------- null}
+ -t 1.08571428571428 -s 1 -d 2 -p cbr -e 1000 -c 2 -i 64 -a 2 -x {1.0 2.1 41 ------- null}
- -t 1.08571428571428 -s 1 -d 2 -p cbr -e 1000 -c 2 -i 64 -a 2 -x {1.0 2.1 41 ------- null}
h -t 1.08571428571428 -s 1 -d 2 -p cbr -e 1000 -c 2 -i 64 -a 2 -x {1.0 2.1 -1 ------- null}
r -t 1.08728 -s 0 -d 2 -p tcp -e 1040 -c 1 -i 54 -a 1 -x {0.0 2.0 8 ------- null}
+ -t 1.08728 -s 2 -d 0 -p ack -e 40 -c 1 -i 65 -a 1 -x {2.0 0.0 8 ------- null}
- -t 1.08728 -s 2 -d 0 -p ack -e 40 -c 1 -i 65 -a 1 -x {2.0 0.0 8 ------- null}
h -t 1.08728 -s 2 -d 0 -p ack -e 40 -c 1 -i 65 -a 1 -x {2.0 0.0 -1 ------- null}
- -t 1.08976 -s 0 -d 2 -p tcp -e 1040 -c 1 -i 60 -a 1 -x {0.0 2.0 12 ------- null}
h -t 1.08976 -s 0 -d 2 -p tcp -e 1040 -c 1 -i 60 -a 1 -x {0.0 2.0 -1 ------- null}
r -t 1.09144 -s 0 -d 2 -p tcp -e 1040 -c 1 -i 57 -a 1 -x {0.0 2.0 9 ------- null}
+ -t 1.09144 -s 2 -d 0 -p ack -e 40 -c 1 -i 66 -a 1 -x {2.0 0.0 9 ------- null}
- -t 1.09144 -s 2 -d 0 -p ack -e 40 -c 1 -i 66 -a 1 -x {2.0 0.0 9 ------- null}
h -t 1.09144 -s 2 -d 0 -p ack -e 40 -c 1 -i 66 -a 1 -x {2.0 0.0 -1 ------- null}
r -t 1.09328 -s 2 -d 0 -p ack -e 40 -c 1 -i 63 -a 1 -x {2.0 0.0 7 ------- null}
+ -t 1.09328 -s 0 -d 2 -p tcp -e 1040 -c 1 -i 67 -a 1 -x {0.0 2.0 15 ------- null}
+ -t 1.09328 -s 0 -d 2 -p tcp -e 1040 -c 1 -i 68 -a 1 -x {0.0 2.0 16 ------- null}
- -t 1.09392 -s 0 -d 2 -p tcp -e 1040 -c 1 -i 61 -a 1 -x {0.0 2.0 13 ------- null}
h -t 1.09392 -s 0 -d 2 -p tcp -e 1040 -c 1 -i 61 -a 1 -x {0.0 2.0 -1 ------- null}
r -t 1.0956 -s 0 -d 2 -p tcp -e 1040 -c 1 -i 58 -a 1 -x {0.0 2.0 10 ------- null}
+ -t 1.0956 -s 2 -d 0 -p ack -e 40 -c 1 -i 69 -a 1 -x {2.0 0.0 10 ------- null}
- -t 1.0956 -s 2 -d 0 -p ack -e 40 -c 1 -i 69 -a 1 -x {2.0 0.0 10 ------- null}
h -t 1.0956 -s 2 -d 0 -p ack -e 40 -c 1 -i 69 -a 1 -x {2.0 0.0 -1 ------- null}
r -t 1.09744 -s 2 -d 0 -p ack -e 40 -c 1 -i 65 -a 1 -x {2.0 0.0 8 ------- null}
+ -t 1.09744 -s 0 -d 2 -p tcp -e 1040 -c 1 -i 70 -a 1 -x {0.0 2.0 17 ------- null}
+ -t 1.09744 -s 0 -d 2 -p tcp -e 1040 -c 1 -i 71 -a 1 -x {0.0 2.0 18 ------- null}
- -t 1.09808 -s 0 -d 2 -p tcp -e 1040 -c 1 -i 62 -a 1 -x {0.0 2.0 14 ------- null}
h -t 1.09808 -s 0 -d 2 -p tcp -e 1040 -c 1 -i 62 -a 1 -x {0.0 2.0 -1 ------- null}
r -t 1.09971428571428 -s 1 -d 2 -p cbr -e 1000 -c 2 -i 64 -a 2 -x {1.0 2.1 41 ------- null}
r -t 1.09976 -s 0 -d 2 -p tcp -e 1040 -c 1 -i 59 -a 1 -x {0.0 2.0 11 ------- null}
+ -t 1.09976 -s 2 -d 0 -p ack -e 40 -c 1 -i 72 -a 1 -x {2.0 0.0 11 ------- null}
- -t 1.09976 -s 2 -d 0 -p ack -e 40 -c 1 -i 72 -a 1 -x {2.0 0.0 11 ------- null}
h -t 1.09976 -s 2 -d 0 -p ack -e 40 -c 1 -i 72 -a 1 -x {2.0 0.0 -1 ------- null}
+ -t 1.1 -s 1 -d 2 -p cbr -e 1000 -c 2 -i 73 -a 2 -x {1.0 2.1 42 ------- null}
- -t 1.1 -s 1 -d 2 -p cbr -e 1000 -c 2 -i 73 -a 2 -x {1.0 2.1 42 ------- null}
h -t 1.1 -s 1 -d 2 -p cbr -e 1000 -c 2 -i 73 -a 2 -x {1.0 2.1 -1 ------- null}
r -t 1.1016 -s 2 -d 0 -p ack -e 40 -c 1 -i 66 -a 1 -x {2.0 0.0 9 ------- null}
+ -t 1.1016 -s 0 -d 2 -p tcp -e 1040 -c 1 -i 74 -a 1 -x {0.0 2.0 19 ------- null}
+ -t 1.1016 -s 0 -d 2 -p tcp -e 1040 -c 1 -i 75 -a 1 -x {0.0 2.0 20 ------- null}
- -t 1.10224 -s 0 -d 2 -p tcp -e 1040 -c 1 -i 67 -a 1 -x {0.0 2.0 15 ------- null}
h -t 1.10224 -s 0 -d 2 -p tcp -e 1040 -c 1 -i 67 -a 1 -x {0.0 2.0 -1 ------- null}
r -t 1.10392 -s 0 -d 2 -p tcp -e 1040 -c 1 -i 60 -a 1 -x {0.0 2.0 12 ------- null}
+ -t 1.10392 -s 2 -d 0 -p ack -e 40 -c 1 -i 76 -a 1 -x {2.0 0.0 12 ------- null}
- -t 1.10392 -s 2 -d 0 -p ack -e 40 -c 1 -i 76 -a 1 -x {2.0 0.0 12 ------- null}
h -t 1.10392 -s 2 -d 0 -p ack -e 40 -c 1 -i 76 -a 1 -x {2.0 0.0 -1 ------- null}
r -t 1.10576 -s 2 -d 0 -p ack -e 40 -c 1 -i 69 -a 1 -x {2.0 0.0 10 ------- null}
+ -t 1.10576 -s 0 -d 2 -p tcp -e 1040 -c 1 -i 77 -a 1 -x {0.0 2.0 21 ------- null}
+ -t 1.10576 -s 0 -d 2 -p tcp -e 1040 -c 1 -i 78 -a 1 -x {0.0 2.0 22 ------- null}
- -t 1.1064 -s 0 -d 2 -p tcp -e 1040 -c 1 -i 68 -a 1 -x {0.0 2.0 16 ------- null}
h -t 1.1064 -s 0 -d 2 -p tcp -e 1040 -c 1 -i 68 -a 1 -x {0.0 2.0 -1 ------- null}
r -t 1.10808 -s 0 -d 2 -p tcp -e 1040 -c 1 -i 61 -a 1 -x {0.0 2.0 13 ------- null}
+ -t 1.10808 -s 2 -d 0 -p ack -e 40 -c 1 -i 79 -a 1 -x {2.0 0.0 13 ------- null}
- -t 1.10808 -s 2 -d 0 -p ack -e 40 -c 1 -i 79 -a 1 -x {2.0 0.0 13 ------- null}
h -t 1.10808 -s 2 -d 0 -p ack -e 40 -c 1 -i 79 -a 1 -x {2.0 0.0 -1 ------- null}
r -t 1.10992 -s 2 -d 0 -p ack -e 40 -c 1 -i 72 -a 1 -x {2.0 0.0 11 ------- null}
+ -t 1.10992 -s 0 -d 2 -p tcp -e 1040 -c 1 -i 80 -a 1 -x {0.0 2.0 23 ------- null}
+ -t 1.10992 -s 0 -d 2 -p tcp -e 1040 -c 1 -i 81 -a 1 -x {0.0 2.0 24 ------- null}
- -t 1.11056 -s 0 -d 2 -p tcp -e 1040 -c 1 -i 70 -a 1 -x {0.0 2.0 17 ------- null}
h -t 1.11056 -s 0 -d 2 -p tcp -e 1040 -c 1 -i 70 -a 1 -x {0.0 2.0 -1 ------- null}
r -t 1.11224 -s 0 -d 2 -p tcp -e 1040 -c 1 -i 62 -a 1 -x {0.0 2.0 14 ------- null}
+ -t 1.11224 -s 2 -d 0 -p ack -e 40 -c 1 -i 82 -a 1 -x {2.0 0.0 14 ------- null}
- -t 1.11224 -s 2 -d 0 -p ack -e 40 -c 1 -i 82 -a 1 -x {2.0 0.0 14 ------- null}
h -t 1.11224 -s 2 -d 0 -p ack -e 40 -c 1 -i 82 -a 1 -x {2.0 0.0 -1 ------- null}
r -t 1.114 -s 1 -d 2 -p cbr -e 1000 -c 2 -i 73 -a 2 -x {1.0 2.1 42 ------- null}
r -t 1.11408 -s 2 -d 0 -p ack -e 40 -c 1 -i 76 -a 1 -x {2.0 0.0 12 ------- null}
+ -t 1.11408 -s 0 -d 2 -p tcp -e 1040 -c 1 -i 83 -a 1 -x {0.0 2.0 25 ------- null}
+ -t 1.11408 -s 0 -d 2 -p tcp -e 1040 -c 1 -i 84 -a 1 -x {0.0 2.0 26 ------- null}
+ -t 1.11428571428571 -s 1 -d 2 -p cbr -e 1000 -c 2 -i 85 -a 2 -x {1.0 2.1 43 ------- null}
- -t 1.11428571428571 -s 1 -d 2 -p cbr -e 1000 -c 2 -i 85 -a 2 -x {1.0 2.1 43 ------- null}
h -t 1.11428571428571 -s 1 -d 2 -p cbr -e 1000 -c 2 -i 85 -a 2 -x {1.0 2.1 -1 ------- null}
- -t 1.11472 -s 0 -d 2 -p tcp -e 1040 -c 1 -i 71 -a 1 -x {0.0 2.0 18 ------- null}
h -t 1.11472 -s 0 -d 2 -p tcp -e 1040 -c 1 -i 71 -a 1 -x {0.0 2.0 -1 ------- null}
r -t 1.1164 -s 0 -d 2 -p tcp -e 1040 -c 1 -i 67 -a 1 -x {0.0 2.0 15 ------- null}
+ -t 1.1164 -s 2 -d 0 -p ack -e 40 -c 1 -i 86 -a 1 -x {2.0 0.0 15 ------- null}
- -t 1.1164 -s 2 -d 0 -p ack -e 40 -c 1 -i 86 -a 1 -x {2.0 0.0 15 ------- null}
h -t 1.1164 -s 2 -d 0 -p ack -e 40 -c 1 -i 86 -a 1 -x {2.0 0.0 -1 ------- null}
r -t 1.11824 -s 2 -d 0 -p ack -e 40 -c 1 -i 79 -a 1 -x {2.0 0.0 13 ------- null}
+ -t 1.11824 -s 0 -d 2 -p tcp -e 1040 -c 1 -i 87 -a 1 -x {0.0 2.0 27 ------- null}
+ -t 1.11824 -s 0 -d 2 -p tcp -e 1040 -c 1 -i 88 -a 1 -x {0.0 2.0 28 ------- null}
d -t 1.11824 -s 0 -d 2 -p tcp -e 1040 -c 1 -i 88 -a 1 -x {0.0 2.0 28 ------- null}
- -t 1.11888 -s 0 -d 2 -p tcp -e 1040 -c 1 -i 74 -a 1 -x {0.0 2.0 19 ------- null}
h -t 1.11888 -s 0 -d 2 -p tcp -e 1040 -c 1 -i 74 -a 1 -x {0.0 2.0 -1 ------- null}
r -t 1.12056 -s 0 -d 2 -p tcp -e 1040 -c 1 -i 68 -a 1 -x {0.0 2.0 16 ------- null}
+ -t 1.12056 -s 2 -d 0 -p ack -e 40 -c 1 -i 89 -a 1 -x {2.0 0.0 16 ------- null}
- -t 1.12056 -s 2 -d 0 -p ack -e 40 -c 1 -i 89 -a 1 -x {2.0 0.0 16 ------- null}
h -t 1.12056 -s 2 -d 0 -p ack -e 40 -c 1 -i 89 -a 1 -x {2.0 0.0 -1 ------- null}
r -t 1.1224 -s 2 -d 0 -p ack -e 40 -c 1 -i 82 -a 1 -x {2.0 0.0 14 ------- null}
+ -t 1.1224 -s 0 -d 2 -p tcp -e 1040 -c 1 -i 90 -a 1 -x {0.0 2.0 29 ------- null}
+ -t 1.1224 -s 0 -d 2 -p tcp -e 1040 -c 1 -i 91 -a 1 -x {0.0 2.0 30 ------- null}
d -t 1.1224 -s 0 -d 2 -p tcp -e 1040 -c 1 -i 91 -a 1 -x {0.0 2.0 30 ------- null}
- -t 1.12304 -s 0 -d 2 -p tcp -e 1040 -c 1 -i 75 -a 1 -x {0.0 2.0 20 ------- null}
h -t 1.12304 -s 0 -d 2 -p tcp -e 1040 -c 1 -i 75 -a 1 -x {0.0 2.0 -1 ------- null}
r -t 1.12472 -s 0 -d 2 -p tcp -e 1040 -c 1 -i 70 -a 1 -x {0.0 2.0 17 ------- null}
+ -t 1.12472 -s 2 -d 0 -p ack -e 40 -c 1 -i 92 -a 1 -x {2.0 0.0 17 ------- null}
- -t 1.12472 -s 2 -d 0 -p ack -e 40 -c 1 -i 92 -a 1 -x {2.0 0.0 17 ------- null}
h -t 1.12472 -s 2 -d 0 -p ack -e 40 -c 1 -i 92 -a 1 -x {2.0 0.0 -1 ------- null}
r -t 1.12656 -s 2 -d 0 -p ack -e 40 -c 1 -i 86 -a 1 -x {2.0 0.0 15 ------- null}
+ -t 1.12656 -s 0 -d 2 -p tcp -e 1040 -c 1 -i 93 -a 1 -x {0.0 2.0 31 ------- null}
+ -t 1.12656 -s 0 -d 2 -p tcp -e 1040 -c 1 -i 94 -a 1 -x {0.0 2.0 32 ------- null}
d -t 1.12656 -s 0 -d 2 -p tcp -e 1040 -c 1 -i 94 -a 1 -x {0.0 2.0 32 ------- null}
- -t 1.1272 -s 0 -d 2 -p tcp -e 1040 -c 1 -i 77 -a 1 -x {0.0 2.0 21 ------- null}