+ 0.5 1 2 cbr 1000 ------- 2 1.0 2.1 0 0
- 0.5 1 2 cbr 1000 ------- 2 1.0 2.1 0 0
r 0.514 1 2 cbr 1000 ------- 2 1.0 2.1 0 0
+ 0.514286 1 2 cbr 1000 ------- 2 1.0 2.1 1 1
- 0.514286 1 2 cbr 1000 ------- 2 1.0 2.1 1 1
r 0.528286 1 2 cbr 1000 ------- 2 1.0 2.1 1 1
+ 0.528571 1 2 cbr 1000 ------- 2 1.0 2.1 2 2
- 0.528571 1 2 cbr 1000 ------- 2 1.0 2.1 2 2
r 0.542571 1 2 cbr 1000 ------- 2 1.0 2.1 2 2
+ 0.542857 1 2 cbr 1000 ------- 2 1.0 2.1 3 3
- 0.542857 1 2 cbr 1000 ------- 2 1.0 2.1 3 3
r 0.556857 1 2 cbr 1000 ------- 2 1.0 2.1 3 3
+ 0.557143 1 2 cbr 1000 ------- 2 1.0 2.1 4 4
- 0.557143 1 2 cbr 1000 ------- 2 1.0 2.1 4 4
r 0.571143 1 2 cbr 1000 ------- 2 1.0 2.1 4 4
+ 0.571429 1 2 cbr 1000 ------- 2 1.0 2.1 5 5
- 0.571429 1 2 cbr 1000 ------- 2 1.0 2.1 5 5
r 0.585429 1 2 cbr 1000 ------- 2 1.0 2.1 5 5
+ 0.585714 1 2 cbr 1000 ------- 2 1.0 2.1 6 6
- 0.585714 1 2 cbr 1000 ------- 2 1.0 2.1 6 6
r 0.599714 1 2 cbr 1000 ------- 2 1.0 2.1 6 6
+ 0.6 1 2 cbr 1000 ------- 2 1.0 2.1 7 7
- 0.6 1 2 cbr 1000 ------- 2 1.0 2.1 7 7
r 0.614 1 2 cbr 1000 ------- 2 1.0 2.1 7 7
+ 0.614286 1 2 cbr 1000 ------- 2 1.0 2.1 8 8
- 0.614286 1 2 cbr 1000 ------- 2 1.0 2.1 8 8
r 0.628286 1 2 cbr 1000 ------- 2 1.0 2.1 8 8
+ 0.628571 1 2 cbr 1000 ------- 2 1.0 2.1 9 9
- 0.628571 1 2 cbr 1000 ------- 2 1.0 2.1 9 9
r 0.642571 1 2 cbr 1000 ------- 2 1.0 2.1 9 9
+ 0.642857 1 2 cbr 1000 ------- 2 1.0 2.1 10 10
- 0.642857 1 2 cbr 1000 ------- 2 1.0 2.1 10 10
r 0.656857 1 2 cbr 1000 ------- 2 1.0 2.1 10 10
+ 0.657143 1 2 cbr 1000 ------- 2 1.0 2.1 11 11
- 0.657143 1 2 cbr 1000 ------- 2 1.0 2.1 11 11
r 0.671143 1 2 cbr 1000 ------- 2 1.0 2.1 11 11
+ 0.671429 1 2 cbr 1000 ------- 2 1.0 2.1 12 12
- 0.671429 1 2 cbr 1000 ------- 2 1.0 2.1 12 12
r 0.685429 1 2 cbr 1000 ------- 2 1.0 2.1 12 12
+ 0.685714 1 2 cbr 1000 ------- 2 1.0 2.1 13 13
- 0.685714 1 2 cbr 1000 ------- 2 1.0 2.1 13 13
r 0.699714 1 2 cbr 1000 ------- 2 1.0 2.1 13 13
+ 0.7 1 2 cbr 1000 ------- 2 1.0 2.1 14 14
- 0.7 1 2 cbr 1000 ------- 2 1.0 2.1 14 14
r 0.714 1 2 cbr 1000 ------- 2 1.0 2.1 14 14
+ 0.714286 1 2 cbr 1000 ------- 2 1.0 2.1 15 15
- 0.714286 1 2 cbr 1000 ------- 2 1.0 2.1 15 15
r 0.728286 1 2 cbr 1000 ------- 2 1.0 2.1 15 15
+ 0.728571 1 2 cbr 1000 ------- 2 1.0 2.1 16 16
- 0.728571 1 2 cbr 1000 ------- 2 1.0 2.1 16 16
r 0.742571 1 2 cbr 1000 ------- 2 1.0 2.1 16 16
+ 0.742857 1 2 cbr 1000 ------- 2 1.0 2.1 17 17
- 0.742857 1 2 cbr 1000 ------- 2 1.0 2.1 17 17
r 0.756857 1 2 cbr 1000 ------- 2 1.0 2.1 17 17
+ 0.757143 1 2 cbr 1000 ------- 2 1.0 2.1 18 18
- 0.757143 1 2 cbr 1000 ------- 2 1.0 2.1 18 18
r 0.771143 1 2 cbr 1000 ------- 2 1.0 2.1 18 18
+ 0.771429 1 2 cbr 1000 ------- 2 1.0 2.1 19 19
- 0.771429 1 2 cbr 1000 ------- 2 1.0 2.1 19 19
r 0.785429 1 2 cbr 1000 ------- 2 1.0 2.1 19 19
+ 0.785714 1 2 cbr 1000 ------- 2 1.0 2.1 20 20
- 0.785714 1 2 cbr 1000 ------- 2 1.0 2.1 20 20
r 0.799714 1 2 cbr 1000 ------- 2 1.0 2.1 20 20
+ 0.8 1 2 cbr 1000 ------- 2 1.0 2.1 21 21
- 0.8 1 2 cbr 1000 ------- 2 1.0 2.1 21 21
r 0.814 1 2 cbr 1000 ------- 2 1.0 2.1 21 21
+ 0.814286 1 2 cbr 1000 ------- 2 1.0 2.1 22 22
- 0.814286 1 2 cbr 1000 ------- 2 1.0 2.1 22 22
r 0.828286 1 2 cbr 1000 ------- 2 1.0 2.1 22 22
+ 0.828571 1 2 cbr 1000 ------- 2 1.0 2.1 23 23
- 0.828571 1 2 cbr 1000 ------- 2 1.0 2.1 23 23
r 0.842571 1 2 cbr 1000 ------- 2 1.0 2.1 23 23
+ 0.842857 1 2 cbr 1000 ------- 2 1.0 2.1 24 24
- 0.842857 1 2 cbr 1000 ------- 2 1.0 2.1 24 24
r 0.856857 1 2 cbr 1000 ------- 2 1.0 2.1 24 24
+ 0.857143 1 2 cbr 1000 ------- 2 1.0 2.1 25 25
- 0.857143 1 2 cbr 1000 ------- 2 1.0 2.1 25 25
r 0.871143 1 2 cbr 1000 ------- 2 1.0 2.1 25 25
+ 0.871429 1 2 cbr 1000 ------- 2 1.0 2.1 26 26
- 0.871429 1 2 cbr 1000 ------- 2 1.0 2.1 26 26
r 0.885429 1 2 cbr 1000 ------- 2 1.0 2.1 26 26
+ 0.885714 1 2 cbr 1000 ------- 2 1.0 2.1 27 27
- 0.885714 1 2 cbr 1000 ------- 2 1.0 2.1 27 27
r 0.899714 1 2 cbr 1000 ------- 2 1.0 2.1 27 27
+ 0.9 1 2 cbr 1000 ------- 2 1.0 2.1 28 28
- 0.9 1 2 cbr 1000 ------- 2 1.0 2.1 28 28
r 0.914 1 2 cbr 1000 ------- 2 1.0 2.1 28 28
+ 0.914286 1 2 cbr 1000 ------- 2 1.0 2.1 29 29
- 0.914286 1 2 cbr 1000 ------- 2 1.0 2.1 29 29
r 0.928286 1 2 cbr 1000 ------- 2 1.0 2.1 29 29
+ 0.928571 1 2 cbr 1000 ------- 2 1.0 2.1 30 30
- 0.928571 1 2 cbr 1000 ------- 2 1.0 2.1 30 30
r 0.942571 1 2 cbr 1000 ------- 2 1.0 2.1 30 30
+ 0.942857 1 2 cbr 1000 ------- 2 1.0 2.1 31 31
- 0.942857 1 2 cbr 1000 ------- 2 1.0 2.1 31 31
r 0.956857 1 2 cbr 1000 ------- 2 1.0 2.1 31 31
+ 0.957143 1 2 cbr 1000 ------- 2 1.0 2.1 32 32
- 0.957143 1 2 cbr 1000 ------- 2 1.0 2.1 32 32
r 0.971143 1 2 cbr 1000 ------- 2 1.0 2.1 32 32
+ 0.971429 1 2 cbr 1000 ------- 2 1.0 2.1 33 33
- 0.971429 1 2 cbr 1000 ------- 2 1.0 2.1 33 33
r 0.985429 1 2 cbr 1000 ------- 2 1.0 2.1 33 33
+ 0.985714 1 2 cbr 1000 ------- 2 1.0 2.1 34 34
- 0.985714 1 2 cbr 1000 ------- 2 1.0 2.1 34 34
r 0.999714 1 2 cbr 1000 ------- 2 1.0 2.1 34 34
+ 1 1 2 cbr 1000 ------- 2 1.0 2.1 35 35
- 1 1 2 cbr 1000 ------- 2 1.0 2.1 35 35
+ 1 0 2 tcp 40 ------- 1 0.0 2.0 0 36
- 1 0 2 tcp 40 ------- 1 0.0 2.0 0 36
r 1.01016 0 2 tcp 40 ------- 1 0.0 2.0 0 36
+ 1.01016 2 0 ack 40 ------- 1 2.0 0.0 0 37
- 1.01016 2 0 ack 40 ------- 1 2.0 0.0 0 37
r 1.014 1 2 cbr 1000 ------- 2 1.0 2.1 35 35
+ 1.014286 1 2 cbr 1000 ------- 2 1.0 2.1 36 38
- 1.014286 1 2 cbr 1000 ------- 2 1.0 2.1 36 38
r 1.02032 2 0 ack 40 ------- 1 2.0 0.0 0 37
+ 1.02032 0 2 tcp 1040 ------- 1 0.0 2.0 1 39
- 1.02032 0 2 tcp 1040 ------- 1 0.0 2.0 1 39
+ 1.02032 0 2 tcp 1040 ------- 1 0.0 2.0 2 40
- 1.02448 0 2 tcp 1040 ------- 1 0.0 2.0 2 40
r 1.028286 1 2 cbr 1000 ------- 2 1.0 2.1 36 38
+ 1.028571 1 2 cbr 1000 ------- 2 1.0 2.1 37 41
- 1.028571 1 2 cbr 1000 ------- 2 1.0 2.1 37 41
r 1.03448 0 2 tcp 1040 ------- 1 0.0 2.0 1 39
+ 1.03448 2 0 ack 40 ------- 1 2.0 0.0 1 42
- 1.03448 2 0 ack 40 ------- 1 2.0 0.0 1 42
r 1.03864 0 2 tcp 1040 ------- 1 0.0 2.0 2 40
+ 1.03864 2 0 ack 40 ------- 1 2.0 0.0 2 43
- 1.03864 2 0 ack 40 ------- 1 2.0 0.0 2 43
r 1.042571 1 2 cbr 1000 ------- 2 1.0 2.1 37 41
+ 1.042857 1 2 cbr 1000 ------- 2 1.0 2.1 38 44
- 1.042857 1 2 cbr 1000 ------- 2 1.0 2.1 38 44
r 1.04464 2 0 ack 40 ------- 1 2.0 0.0 1 42
+ 1.04464 0 2 tcp 1040 ------- 1 0.0 2.0 3 45
- 1.04464 0 2 tcp 1040 ------- 1 0.0 2.0 3 45
+ 1.04464 0 2 tcp 1040 ------- 1 0.0 2.0 4 46
r 1.0488 2 0 ack 40 ------- 1 2.0 0.0 2 43
+ 1.0488 0 2 tcp 1040 ------- 1 0.0 2.0 5 47
+ 1.0488 0 2 tcp 1040 ------- 1 0.0 2.0 6 48
- 1.0488 0 2 tcp 1040 ------- 1 0.0 2.0 4 46
- 1.05296 0 2 tcp 1040 ------- 1 0.0 2.0 5 47
r 1.056857 1 2 cbr 1000 ------- 2 1.0 2.1 38 44
- 1.05712 0 2 tcp 1040 ------- 1 0.0 2.0 6 48
+ 1.057143 1 2 cbr 1000 ------- 2 1.0 2.1 39 49
- 1.057143 1 2 cbr 1000 ------- 2 1.0 2.1 39 49
r 1.0588 0 2 tcp 1040 ------- 1 0.0 2.0 3 45
+ 1.0588 2 0 ack 40 ------- 1 2.0 0.0 3 50
- 1.0588 2 0 ack 40 ------- 1 2.0 0.0 3 50
r 1.06296 0 2 tcp 1040 ------- 1 0.0 2.0 4 46
+ 1.06296 2 0 ack 40 ------- 1 2.0 0.0 4 51
- 1.06296 2 0 ack 40 ------- 1 2.0 0.0 4 51
r 1.06712 0 2 tcp 1040 ------- 1 0.0 2.0 5 47
+ 1.06712 2 0 ack 40 ------- 1 2.0 0.0 5 52
- 1.06712 2 0 ack 40 ------- 1 2.0 0.0 5 52
r 1.06896 2 0 ack 40 ------- 1 2.0 0.0 3 50
+ 1.06896 0 2 tcp 1040 ------- 1 0.0 2.0 7 53
- 1.06896 0 2 tcp 1040 ------- 1 0.0 2.0 7 53
+ 1.06896 0 2 tcp 1040 ------- 1 0.0 2.0 8 54
r 1.071143 1 2 cbr 1000 ------- 2 1.0 2.1 39 49
r 1.07128 0 2 tcp 1040 ------- 1 0.0 2.0 6 48
+ 1.07128 2 0 ack 40 ------- 1 2.0 0.0 6 55
- 1.07128 2 0 ack 40 ------- 1 2.0 0.0 6 55
+ 1.071429 1 2 cbr 1000 ------- 2 1.0 2.1 40 56
- 1.071429 1 2 cbr 1000 ------- 2 1.0 2.1 40 56
r 1.07312 2 0 ack 40 ------- 1 2.0 0.0 4 51
+ 1.07312 0 2 tcp 1040 ------- 1 0.0 2.0 9 57
+ 1.07312 0 2 tcp 1040 ------- 1 0.0 2.0 10 58
- 1.07312 0 2 tcp 1040 ------- 1 0.0 2.0 8 54
r 1.07728 2 0 ack 40 ------- 1 2.0 0.0 5 52
+ 1.07728 0 2 tcp 1040 ------- 1 0.0 2.0 11 59
+ 1.07728 0 2 tcp 1040 ------- 1 0.0 2.0 12 60
- 1.07728 0 2 tcp 1040 ------- 1 0.0 2.0 9 57
r 1.08144 2 0 ack 40 ------- 1 2.0 0.0 6 55
+ 1.08144 0 2 tcp 1040 ------- 1 0.0 2.0 13 61
+ 1.08144 0 2 tcp 1040 ------- 1 0.0 2.0 14 62
- 1.08144 0 2 tcp 1040 ------- 1 0.0 2.0 10 58
r 1.08312 0 2 tcp 1040 ------- 1 0.0 2.0 7 53
+ 1.08312 2 0 ack 40 ------- 1 2.0 0.0 7 63
- 1.08312 2 0 ack 40 ------- 1 2.0 0.0 7 63
r 1.085429 1 2 cbr 1000 ------- 2 1.0 2.1 40 56
- 1.0856 0 2 tcp 1040 ------- 1 0.0 2.0 11 59
+ 1.085714 1 2 cbr 1000 ------- 2 1.0 2.1 41 64
- 1.085714 1 2 cbr 1000 ------- 2 1.0 2.1 41 64
r 1.08728 0 2 tcp 1040 ------- 1 0.0 2.0 8 54
+ 1.08728 2 0 ack 40 ------- 1 2.0 0.0 8 65
- 1.08728 2 0 ack 40 ------- 1 2.0 0.0 8 65
- 1.08976 0 2 tcp 1040 ------- 1 0.0 2.0 12 60
r 1.09144 0 2 tcp 1040 ------- 1 0.0 2.0 9 57
+ 1.09144 2 0 ack 40 ------- 1 2.0 0.0 9 66
- 1.09144 2 0 ack 40 ------- 1 2.0 0.0 9 66
r 1.09328 2 0 ack 40 ------- 1 2.0 0.0 7 63
+ 1.09328 0 2 tcp 1040 ------- 1 0.0 2.0 15 67
+ 1.09328 0 2 tcp 1040 ------- 1 0.0 2.0 16 68
- 1.09392 0 2 tcp 1040 ------- 1 0.0 2.0 13 61
r 1.0956 0 2 tcp 1040 ------- 1 0.0 2.0 10 58
+ 1.0956 2 0 ack 40 ------- 1 2.0 0.0 10 69
- 1.0956 2 0 ack 40 ------- 1 2.0 0.0 10 69
r 1.09744 2 0 ack 40 ------- 1 2.0 0.0 8 65
+ 1.09744 0 2 tcp 1040 ------- 1 0.0 2.0 17 70
+ 1.09744 0 2 tcp 1040 ------- 1 0.0 2.0 18 71
- 1.09808 0 2 tcp 1040 ------- 1 0.0 2.0 14 62
r 1.099714 1 2 cbr 1000 ------- 2 1.0 2.1 41 64
r 1.09976 0 2 tcp 1040 ------- 1 0.0 2.0 11 59
+ 1.09976 2 0 ack 40 ------- 1 2.0 0.0 11 72
- 1.09976 2 0 ack 40 ------- 1 2.0 0.0 11 72
+ 1.1 1 2 cbr 1000 ------- 2 1.0 2.1 42 73
- 1.1 1 2 cbr 1000 ------- 2 1.0 2.1 42 73
r 1.1016 2 0 ack 40 ------- 1 2.0 0.0 9 66
+ 1.1016 0 2 tcp 1040 ------- 1 0.0 2.0 19 74
+ 1.1016 0 2 tcp 1040 ------- 1 0.0 2.0 20 75
- 1.10224 0 2 tcp 1040 ------- 1 0.0 2.0 15 67
r 1.10392 0 2 tcp 1040 ------- 1 0.0 2.0 12 60
+ 1.10392 2 0 ack 40 ------- 1 2.0 0.0 12 76
- 1.10392 2 0 ack 40 ------- 1 2.0 0.0 12 76
r 1.10576 2 0 ack 40 ------- 1 2.0 0.0 10 69
+ 1.10576 0 2 tcp 1040 ------- 1 0.0 2.0 21 77
+ 1.10576 0 2 tcp 1040 ------- 1 0.0 2.0 22 78
- 1.1064 0 2 tcp 1040 ------- 1 0.0 2.0 16 68
r 1.10808 0 2 tcp 1040 ------- 1 0.0 2.0 13 61
+ 1.10808 2 0 ack 40 ------- 1 2.0 0.0 13 79
- 1.10808 2 0 ack 40 ------- 1 2.0 0.0 13 79
r 1.10992 2 0 ack 40 ------- 1 2.0 0.0 11 72
+ 1.10992 0 2 tcp 1040 ------- 1 0.0 2.0 23 80
+ 1.10992 0 2 tcp 1040 ------- 1 0.0 2.0 24 81
- 1.11056 0 2 tcp 1040 ------- 1 0.0 2.0 17 70
r 1.11224 0 2 tcp 1040 ------- 1 0.0 2.0 14 62
+ 1.11224 2 0 ack 40 ------- 1 2.0 0.0 14 82
- 1.11224 2 0 ack 40 ------- 1 2.0 0.0 14 82
r 1.114 1 2 cbr 1000 ------- 2 1.0 2.1 42 73
r 1.11408 2 0 ack 40 ------- 1 2.0 0.0 12 76
+ 1.11408 0 2 tcp 1040 ------- 1 0.0 2.0 25 83
+ 1.11408 0 2 tcp 1040 ------- 1 0.0 2.0 26 84
+ 1.114286 1 2 cbr 1000 ------- 2 1.0 2.1 43 85
- 1.114286 1 2 cbr 1000 ------- 2 1.0 2.1 43 85
- 1.11472 0 2 tcp 1040 ------- 1 0.0 2.0 18 71
r 1.1164 0 2 tcp 1040 ------- 1 0.0 2.0 15 67
+ 1.1164 2 0 ack 40 ------- 1 2.0 0.0 15 86
- 1.1164 2 0 ack 40 ------- 1 2.0 0.0 15 86
r 1.11824 2 0 ack 40 ------- 1 2.0 0.0 13 79
+ 1.11824 0 2 tcp 1040 ------- 1 0.0 2.0 27 87
+ 1.11824 0 2 tcp 1040 ------- 1 0.0 2.0 28 88
d 1.11824 0 2 tcp 1040 ------- 1 0.0 2.0 28 88
- 1.11888 0 2 tcp 1040 ------- 1 0.0 2.0 19 74
r 1.12056 0 2 tcp 1040 ------- 1 0.0 2.0 16 68
+ 1.12056 2 0 ack 40 ------- 1 2.0 0.0 16 89
- 1.12056 2 0 ack 40 ------- 1 2.0 0.0 16 89
r 1.1224 2 0 ack 40 ------- 1 2.0 0.0 14 82
+ 1.1224 0 2 tcp 1040 ------- 1 0.0 2.0 29 90
+ 1.1224 0 2 tcp 1040 ------- 1 0.0 2.0 30 91
d 1.1224 0 2 tcp 1040 ------- 1 0.0 2.0 30 91
- 1.12304 0 2 tcp 1040 ------- 1 0.0 2.0 20 75
r 1.12472 0 2 tcp 1040 ------- 1 0.0 2.0 17 70
+ 1.12472 2 0 ack 40 ------- 1 2.0 0.0 17 92
- 1.12472 2 0 ack 40 ------- 1 2.0 0.0 17 92
r 1.12656 2 0 ack 40 ------- 1 2.0 0.0 15 86
+ 1.12656 0 2 tcp 1040 ------- 1 0.0 2.0 31 93
+ 1.12656 0 2 tcp 1040 ------- 1 0.0 2.0 32 94
d 1.12656 0 2 tcp 1040 ------- 1 0.0 2.0 32 94
- 1.1272 0 2 tcp 1040 ------- 1 0.0 2.0 21 77
r 1.128286 1 2 cbr 1000 ------- 2 1.0 2.1 43 85
+ 1.128571 1 2 cbr 1000 ------- 2 1.0 2.1 44 95
- 1.128571 1 2 cbr 1000 ------- 2 1.0 2.1 44 95
r 1.12888 0 2 tcp 1040 ------- 1 0.0 2.0 18 71
+ 1.12888 2 0 ack 40 ------- 1 2.0 0.0 18 96
- 1.12888 2 0 ack 40 ------- 1 2.0 0.0 18 96
r 1.13072 2 0 ack 40 ------- 1 2.0 0.0 16 89
+ 1.13072 0 2 tcp 1040 ------- 1 0.0 2.0 33 97
+ 1.13072 0 2 tcp 1040 ------- 1 0.0 2.0 34 98
d 1.13072 0 2 tcp 1040 ------- 1 0.0 2.0 34 98
- 1.13136 0 2 tcp 1040 ------- 1 0.0 2.0 22 78
r 1.13304 0 2 tcp 1040 ------- 1 0.0 2.0 19 74
+ 1.13304 2 0 ack 40 ------- 1 2.0 0.0 19 99
- 1.13304 2 0 ack 40 ------- 1 2.0 0.0 19 99
r 1.13488 2 0 ack 40 ------- 1 2.0 0.0 17 92
+ 1.13488 0 2 tcp 1040 ------- 1 0.0 2.0 35 100
+ 1.13488 0 2 tcp 1040 ------- 1 0.0 2.0 36 101
d 1.13488 0 2 tcp 1040 ------- 1 0.0 2.0 36 101
- 1.13552 0 2 tcp 1040 ------- 1 0.0 2.0 23 80
r 1.1372 0 2 tcp 1040 ------- 1 0.0 2.0 20 75
+ 1.1372 2 0 ack 40 ------- 1 2.0 0.0 20 102
- 1.1372 2 0 ack 40 ------- 1 2.0 0.0 20 102
r 1.13904 2 0 ack 40 ------- 1 2.0 0.0 18 96
+ 1.13904 0 2 tcp 1040 ------- 1 0.0 2.0 37 103
+ 1.13904 0 2 tcp 1040 ------- 1 0.0 2.0 38 104
d 1.13904 0 2 tcp 1040 ------- 1 0.0 2.0 38 104
- 1.13968 0 2 tcp 1040 ------- 1 0.0 2.0 24 81
r 1.14136 0 2 tcp 1040 ------- 1 0.0 2.0 21 77
+ 1.14136 2 0 ack 40 ------- 1 2.0 0.0 21 105
- 1.14136 2 0 ack 40 ------- 1 2.0 0.0 21 105
r 1.142571 1 2 cbr 1000 ------- 2 1.0 2.1 44 95
+ 1.142857 1 2 cbr 1000 ------- 2 1.0 2.1 45 106
- 1.142857 1 2 cbr 1000 ------- 2 1.0 2.1 45 106
r 1.1432 2 0 ack 40 ------- 1 2.0 0.0 19 99
+ 1.1432 0 2 tcp 1040 ------- 1 0.0 2.0 39 107
- 1.14384 0 2 tcp 1040 ------- 1 0.0 2.0 25 83
r 1.14552 0 2 tcp 1040 ------- 1 0.0 2.0 22 78
+ 1.14552 2 0 ack 40 ------- 1 2.0 0.0 22 108
- 1.14552 2 0 ack 40 ------- 1 2.0 0.0 22 108
r 1.14736 2 0 ack 40 ------- 1 2.0 0.0 20 102
+ 1.14736 0 2 tcp 1040 ------- 1 0.0 2.0 40 109
- 1.148 0 2 tcp 1040 ------- 1 0.0 2.0 26 84
r 1.14968 0 2 tcp 1040 ------- 1 0.0 2.0 23 80
+ 1.14968 2 0 ack 40 ------- 1 2.0 0.0 23 110
- 1.14968 2 0 ack 40 ------- 1 2.0 0.0 23 110
r 1.15152 2 0 ack 40 ------- 1 2.0 0.0 21 105
+ 1.15152 0 2 tcp 1040 ------- 1 0.0 2.0 41 111
- 1.15216 0 2 tcp 1040 ------- 1 0.0 2.0 27 87
r 1.15384 0 2 tcp 1040 ------- 1 0.0 2.0 24 81
+ 1.15384 2 0 ack 40 ------- 1 2.0 0.0 24 112
- 1.15384 2 0 ack 40 ------- 1 2.0 0.0 24 112
r 1.15568 2 0 ack 40 ------- 1 2.0 0.0 22 108
+ 1.15568 0 2 tcp 1040 ------- 1 0.0 2.0 42 113
- 1.15632 0 2 tcp 1040 ------- 1 0.0 2.0 29 90
r 1.156857 1 2 cbr 1000 ------- 2 1.0 2.1 45 106
+ 1.157143 1 2 cbr 1000 ------- 2 1.0 2.1 46 114
- 1.157143 1 2 cbr 1000 ------- 2 1.0 2.1 46 114
r 1.158 0 2 tcp 1040 ------- 1 0.0 2.0 25 83
+ 1.158 2 0 ack 40 ------- 1 2.0 0.0 25 115
- 1.158 2 0 ack 40 ------- 1 2.0 0.0 25 115
r 1.15984 2 0 ack 40 ------- 1 2.0 0.0 23 110
+ 1.15984 0 2 tcp 1040 ------- 1 0.0 2.0 43 116
- 1.16048 0 2 tcp 1040 ------- 1 0.0 2.0 31 93
r 1.16216 0 2 tcp 1040 ------- 1 0.0 2.0 26 84
+ 1.16216 2 0 ack 40 ------- 1 2.0 0.0 26 117
- 1.16216 2 0 ack 40 ------- 1 2.0 0.0 26 117
r 1.164 2 0 ack 40 ------- 1 2.0 0.0 24 112
+ 1.164 0 2 tcp 1040 ------- 1 0.0 2.0 44 118
- 1.16464 0 2 tcp 1040 ------- 1 0.0 2.0 33 97
r 1.16632 0 2 tcp 1040 ------- 1 0.0 2.0 27 87
+ 1.16632 2 0 ack 40 ------- 1 2.0 0.0 27 119
- 1.16632 2 0 ack 40 ------- 1 2.0 0.0 27 119
r 1.16816 2 0 ack 40 ------- 1 2.0 0.0 25 115
+ 1.16816 0 2 tcp 1040 ------- 1 0.0 2.0 45 120
- 1.1688 0 2 tcp 1040 ------- 1 0.0 2.0 35 100
r 1.17048 0 2 tcp 1040 ------- 1 0.0 2.0 29 90
+ 1.17048 2 0 ack 40 ------- 1 2.0 0.0 27 121
- 1.17048 2 0 ack 40 ------- 1 2.0 0.0 27 121
r 1.171143 1 2 cbr 1000 ------- 2 1.0 2.1 46 114
+ 1.171429 1 2 cbr 1000 ------- 2 1.0 2.1 47 122
- 1.171429 1 2 cbr 1000 ------- 2 1.0 2.1 47 122
r 1.17232 2 0 ack 40 ------- 1 2.0 0.0 26 117
+ 1.17232 0 2 tcp 1040 ------- 1 0.0 2.0 46 123
- 1.17296 0 2 tcp 1040 ------- 1 0.0 2.0 37 103
r 1.17464 0 2 tcp 1040 ------- 1 0.0 2.0 31 93
+ 1.17464 2 0 ack 40 ------- 1 2.0 0.0 27 124
- 1.17464 2 0 ack 40 ------- 1 2.0 0.0 27 124
r 1.17648 2 0 ack 40 ------- 1 2.0 0.0 27 119
+ 1.17648 0 2 tcp 1040 ------- 1 0.0 2.0 47 125
- 1.17712 0 2 tcp 1040 ------- 1 0.0 2.0 39 107
r 1.1788 0 2 tcp 1040 ------- 1 0.0 2.0 33 97
+ 1.1788 2 0 ack 40 ------- 1 2.0 0.0 27 126
- 1.1788 2 0 ack 40 ------- 1 2.0 0.0 27 126
r 1.18064 2 0 ack 40 ------- 1 2.0 0.0 27 121
- 1.18128 0 2 tcp 1040 ------- 1 0.0 2.0 40 109
r 1.18296 0 2 tcp 1040 ------- 1 0.0 2.0 35 100
+ 1.18296 2 0 ack 40 ------- 1 2.0 0.0 27 127
- 1.18296 2 0 ack 40 ------- 1 2.0 0.0 27 127
r 1.1848 2 0 ack 40 ------- 1 2.0 0.0 27 124
r 1.185429 1 2 cbr 1000 ------- 2 1.0 2.1 47 122
- 1.18544 0 2 tcp 1040 ------- 1 0.0 2.0 41 111
+ 1.185714 1 2 cbr 1000 ------- 2 1.0 2.1 48 128
- 1.185714 1 2 cbr 1000 ------- 2 1.0 2.1 48 128
r 1.18712 0 2 tcp 1040 ------- 1 0.0 2.0 37 103
+ 1.18712 2 0 ack 40 ------- 1 2.0 0.0 27 129
- 1.18712 2 0 ack 40 ------- 1 2.0 0.0 27 129
r 1.18896 2 0 ack 40 ------- 1 2.0 0.0 27 126
+ 1.18896 0 2 tcp 1040 ---A--- 1 0.0 2.0 28 130
- 1.1896 0 2 tcp 1040 ------- 1 0.0 2.0 42 113
r 1.19128 0 2 tcp 1040 ------- 1 0.0 2.0 39 107
+ 1.19128 2 0 ack 40 ------- 1 2.0 0.0 27 131
- 1.19128 2 0 ack 40 ------- 1 2.0 0.0 27 131
r 1.19312 2 0 ack 40 ------- 1 2.0 0.0 27 127
- 1.19376 0 2 tcp 1040 ------- 1 0.0 2.0 43 116
r 1.19544 0 2 tcp 1040 ------- 1 0.0 2.0 40 109
+ 1.19544 2 0 ack 40 ------- 1 2.0 0.0 27 132
- 1.19544 2 0 ack 40 ------- 1 2.0 0.0 27 132
r 1.19728 2 0 ack 40 ------- 1 2.0 0.0 27 129
- 1.19792 0 2 tcp 1040 ------- 1 0.0 2.0 44 118
r 1.1996 0 2 tcp 1040 ------- 1 0.0 2.0 41 111
+ 1.1996 2 0 ack 40 ------- 1 2.0 0.0 27 133
- 1.1996 2 0 ack 40 ------- 1 2.0 0.0 27 133
r 1.199714 1 2 cbr 1000 ------- 2 1.0 2.1 48 128
+ 1.2 1 2 cbr 1000 ------- 2 1.0 2.1 49 134
- 1.2 1 2 cbr 1000 ------- 2 1.0 2.1 49 134
r 1.20144 2 0 ack 40 ------- 1 2.0 0.0 27 131
- 1.20208 0 2 tcp 1040 ------- 1 0.0 2.0 45 120
r 1.20376 0 2 tcp 1040 ------- 1 0.0 2.0 42 113
+ 1.20376 2 0 ack 40 ------- 1 2.0 0.0 27 135
- 1.20376 2 0 ack 40 ------- 1 2.0 0.0 27 135
r 1.2056 2 0 ack 40 ------- 1 2.0 0.0 27 132
- 1.20624 0 2 tcp 1040 ------- 1 0.0 2.0 46 123
r 1.20792 0 2 tcp 1040 ------- 1 0.0 2.0 43 116
+ 1.20792 2 0 ack 40 ------- 1 2.0 0.0 27 136
- 1.20792 2 0 ack 40 ------- 1 2.0 0.0 27 136
r 1.20976 2 0 ack 40 ------- 1 2.0 0.0 27 133
- 1.2104 0 2 tcp 1040 ------- 1 0.0 2.0 47 125
r 1.21208 0 2 tcp 1040 ------- 1 0.0 2.0 44 118
+ 1.21208 2 0 ack 40 ------- 1 2.0 0.0 27 137
- 1.21208 2 0 ack 40 ------- 1 2.0 0.0 27 137
r 1.21392 2 0 ack 40 ------- 1 2.0 0.0 27 135
r 1.214 1 2 cbr 1000 ------- 2 1.0 2.1 49 134
+ 1.214286 1 2 cbr 1000 ------- 2 1.0 2.1 50 138
- 1.214286 1 2 cbr 1000 ------- 2 1.0 2.1 50 138
- 1.21456 0 2 tcp 1040 ---A--- 1 0.0 2.0 28 130
r 1.21624 0 2 tcp 1040 ------- 1 0.0 2.0 45 120
+ 1.21624 2 0 ack 40 ------- 1 2.0 0.0 27 139
- 1.21624 2 0 ack 40 ------- 1 2.0 0.0 27 139
r 1.21808 2 0 ack 40 ------- 1 2.0 0.0 27 136
r 1.2204 0 2 tcp 1040 ------- 1 0.0 2.0 46 123
+ 1.2204 2 0 ack 40 ------- 1 2.0 0.0 27 140
- 1.2204 2 0 ack 40 ------- 1 2.0 0.0 27 140
r 1.22224 2 0 ack 40 ------- 1 2.0 0.0 27 137
r 1.22456 0 2 tcp 1040 ------- 1 0.0 2.0 47 125
+ 1.22456 2 0 ack 40 ------- 1 2.0 0.0 27 141
- 1.22456 2 0 ack 40 ------- 1 2.0 0.0 27 141
r 1.2264 2 0 ack 40 ------- 1 2.0 0.0 27 139
r 1.228286 1 2 cbr 1000 ------- 2 1.0 2.1 50 138
+ 1.228571 1 2 cbr 1000 ------- 2 1.0 2.1 51 142
- 1.228571 1 2 cbr 1000 ------- 2 1.0 2.1 51 142
r 1.22872 0 2 tcp 1040 ---A--- 1 0.0 2.0 28 130
+ 1.22872 2 0 ack 40 ------- 1 2.0 0.0 29 143
- 1.22872 2 0 ack 40 ------- 1 2.0 0.0 29 143
r 1.23056 2 0 ack 40 ------- 1 2.0 0.0 27 140
r 1.23472 2 0 ack 40 ------- 1 2.0 0.0 27 141
r 1.23888 2 0 ack 40 ------- 1 2.0 0.0 29 143
+ 1.23888 0 2 tcp 1040 ------- 1 0.0 2.0 30 144
- 1.23888 0 2 tcp 1040 ------- 1 0.0 2.0 30 144
+ 1.23888 0 2 tcp 1040 ------- 1 0.0 2.0 31 145
r 1.242571 1 2 cbr 1000 ------- 2 1.0 2.1 51 142
+ 1.242857 1 2 cbr 1000 ------- 2 1.0 2.1 52 146
- 1.242857 1 2 cbr 1000 ------- 2 1.0 2.1 52 146
- 1.24304 0 2 tcp 1040 ------- 1 0.0 2.0 31 145
r 1.25304 0 2 tcp 1040 ------- 1 0.0 2.0 30 144
+ 1.25304 2 0 ack 40 ------- 1 2.0 0.0 31 147
- 1.25304 2 0 ack 40 ------- 1 2.0 0.0 31 147
r 1.256857 1 2 cbr 1000 ------- 2 1.0 2.1 52 146
+ 1.257143 1 2 cbr 1000 ------- 2 1.0 2.1 53 148
- 1.257143 1 2 cbr 1000 ------- 2 1.0 2.1 53 148
r 1.2572 0 2 tcp 1040 ------- 1 0.0 2.0 31 145
+ 1.2572 2 0 ack 40 ------- 1 2.0 0.0 31 149
- 1.2572 2 0 ack 40 ------- 1 2.0 0.0 31 149
r 1.2632 2 0 ack 40 ------- 1 2.0 0.0 31 147
+ 1.2632 0 2 tcp 1040 ------- 1 0.0 2.0 32 150
- 1.2632 0 2 tcp 1040 ------- 1 0.0 2.0 32 150
+ 1.2632 0 2 tcp 1040 ------- 1 0.0 2.0 33 151
+ 1.2632 0 2 tcp 1040 ------- 1 0.0 2.0 34 152
r 1.26736 2 0 ack 40 ------- 1 2.0 0.0 31 149
+ 1.26736 0 2 tcp 1040 ------- 1 0.0 2.0 35 153
- 1.26736 0 2 tcp 1040 ------- 1 0.0 2.0 33 151
r 1.271143 1 2 cbr 1000 ------- 2 1.0 2.1 53 148
+ 1.271429 1 2 cbr 1000 ------- 2 1.0 2.1 54 154
- 1.271429 1 2 cbr 1000 ------- 2 1.0 2.1 54 154
- 1.27152 0 2 tcp 1040 ------- 1 0.0 2.0 34 152
- 1.27568 0 2 tcp 1040 ------- 1 0.0 2.0 35 153
r 1.27736 0 2 tcp 1040 ------- 1 0.0 2.0 32 150
+ 1.27736 2 0 ack 40 ------- 1 2.0 0.0 33 155
- 1.27736 2 0 ack 40 ------- 1 2.0 0.0 33 155
r 1.28152 0 2 tcp 1040 ------- 1 0.0 2.0 33 151
+ 1.28152 2 0 ack 40 ------- 1 2.0 0.0 33 156
- 1.28152 2 0 ack 40 ------- 1 2.0 0.0 33 156
r 1.285429 1 2 cbr 1000 ------- 2 1.0 2.1 54 154
r 1.28568 0 2 tcp 1040 ------- 1 0.0 2.0 34 152
+ 1.28568 2 0 ack 40 ------- 1 2.0 0.0 35 157
- 1.28568 2 0 ack 40 ------- 1 2.0 0.0 35 157
+ 1.285714 1 2 cbr 1000 ------- 2 1.0 2.1 55 158
- 1.285714 1 2 cbr 1000 ------- 2 1.0 2.1 55 158
r 1.28752 2 0 ack 40 ------- 1 2.0 0.0 33 155
+ 1.28752 0 2 tcp 1040 ------- 1 0.0 2.0 36 159
- 1.28752 0 2 tcp 1040 ------- 1 0.0 2.0 36 159
+ 1.28752 0 2 tcp 1040 ------- 1 0.0 2.0 37 160
r 1.28984 0 2 tcp 1040 ------- 1 0.0 2.0 35 153
+ 1.28984 2 0 ack 40 ------- 1 2.0 0.0 35 161
- 1.28984 2 0 ack 40 ------- 1 2.0 0.0 35 161
r 1.29168 2 0 ack 40 ------- 1 2.0 0.0 33 156
+ 1.29168 0 2 tcp 1040 ------- 1 0.0 2.0 38 162
- 1.29168 0 2 tcp 1040 ------- 1 0.0 2.0 37 160
r 1.29584 2 0 ack 40 ------- 1 2.0 0.0 35 157
+ 1.29584 0 2 tcp 1040 ------- 1 0.0 2.0 39 163
+ 1.29584 0 2 tcp 1040 ------- 1 0.0 2.0 40 164
- 1.29584 0 2 tcp 1040 ------- 1 0.0 2.0 38 162
r 1.299714 1 2 cbr 1000 ------- 2 1.0 2.1 55 158
+ 1.3 1 2 cbr 1000 ------- 2 1.0 2.1 56 165
- 1.3 1 2 cbr 1000 ------- 2 1.0 2.1 56 165
r 1.3 2 0 ack 40 ------- 1 2.0 0.0 35 161
+ 1.3 0 2 tcp 1040 ------- 1 0.0 2.0 41 166
- 1.3 0 2 tcp 1040 ------- 1 0.0 2.0 39 163
r 1.30168 0 2 tcp 1040 ------- 1 0.0 2.0 36 159
+ 1.30168 2 0 ack 40 ------- 1 2.0 0.0 37 167
- 1.30168 2 0 ack 40 ------- 1 2.0 0.0 37 167
- 1.30416 0 2 tcp 1040 ------- 1 0.0 2.0 40 164
r 1.30584 0 2 tcp 1040 ------- 1 0.0 2.0 37 160
+ 1.30584 2 0 ack 40 ------- 1 2.0 0.0 37 168
- 1.30584 2 0 ack 40 ------- 1 2.0 0.0 37 168
- 1.30832 0 2 tcp 1040 ------- 1 0.0 2.0 41 166
r 1.31 0 2 tcp 1040 ------- 1 0.0 2.0 38 162
+ 1.31 2 0 ack 40 ------- 1 2.0 0.0 47 169
- 1.31 2 0 ack 40 ------- 1 2.0 0.0 47 169
r 1.31184 2 0 ack 40 ------- 1 2.0 0.0 37 167
+ 1.31184 0 2 tcp 1040 ------- 1 0.0 2.0 42 170
+ 1.31184 0 2 tcp 1040 ------- 1 0.0 2.0 43 171
- 1.31248 0 2 tcp 1040 ------- 1 0.0 2.0 42 170
r 1.314 1 2 cbr 1000 ------- 2 1.0 2.1 56 165
r 1.31416 0 2 tcp 1040 ------- 1 0.0 2.0 39 163
+ 1.31416 2 0 ack 40 ------- 1 2.0 0.0 47 172
- 1.31416 2 0 ack 40 ------- 1 2.0 0.0 47 172
+ 1.314286 1 2 cbr 1000 ------- 2 1.0 2.1 57 173
- 1.314286 1 2 cbr 1000 ------- 2 1.0 2.1 57 173
r 1.316 2 0 ack 40 ------- 1 2.0 0.0 37 168
+ 1.316 0 2 tcp 1040 ------- 1 0.0 2.0 44 174
- 1.31664 0 2 tcp 1040 ------- 1 0.0 2.0 43 171
r 1.31832 0 2 tcp 1040 ------- 1 0.0 2.0 40 164
+ 1.31832 2 0 ack 40 ------- 1 2.0 0.0 47 175
- 1.31832 2 0 ack 40 ------- 1 2.0 0.0 47 175
r 1.32016 2 0 ack 40 ------- 1 2.0 0.0 47 169
+ 1.32016 0 2 tcp 1040 ------- 1 0.0 2.0 48 176
+ 1.32016 0 2 tcp 1040 ------- 1 0.0 2.0 49 177
+ 1.32016 0 2 tcp 1040 ------- 1 0.0 2.0 50 178
+ 1.32016 0 2 tcp 1040 ------- 1 0.0 2.0 51 179
+ 1.32016 0 2 tcp 1040 ------- 1 0.0 2.0 52 180
+ 1.32016 0 2 tcp 1040 ------- 1 0.0 2.0 53 181
+ 1.32016 0 2 tcp 1040 ------- 1 0.0 2.0 54 182
- 1.3208 0 2 tcp 1040 ------- 1 0.0 2.0 44 174
r 1.32248 0 2 tcp 1040 ------- 1 0.0 2.0 41 166
+ 1.32248 2 0 ack 40 ------- 1 2.0 0.0 47 183
- 1.32248 2 0 ack 40 ------- 1 2.0 0.0 47 183
r 1.32432 2 0 ack 40 ------- 1 2.0 0.0 47 172
+ 1.32432 0 2 tcp 1040 ------- 1 0.0 2.0 55 184
- 1.32496 0 2 tcp 1040 ------- 1 0.0 2.0 48 176
r 1.32664 0 2 tcp 1040 ------- 1 0.0 2.0 42 170
+ 1.32664 2 0 ack 40 ------- 1 2.0 0.0 47 185
- 1.32664 2 0 ack 40 ------- 1 2.0 0.0 47 185
r 1.328286 1 2 cbr 1000 ------- 2 1.0 2.1 57 173
r 1.32848 2 0 ack 40 ------- 1 2.0 0.0 47 175
+ 1.32848 0 2 tcp 1040 ------- 1 0.0 2.0 56 186
+ 1.328571 1 2 cbr 1000 ------- 2 1.0 2.1 58 187
- 1.328571 1 2 cbr 1000 ------- 2 1.0 2.1 58 187
- 1.32912 0 2 tcp 1040 ------- 1 0.0 2.0 49 177
r 1.3308 0 2 tcp 1040 ------- 1 0.0 2.0 43 171
+ 1.3308 2 0 ack 40 ------- 1 2.0 0.0 47 188
- 1.3308 2 0 ack 40 ------- 1 2.0 0.0 47 188
r 1.33264 2 0 ack 40 ------- 1 2.0 0.0 47 183
- 1.33328 0 2 tcp 1040 ------- 1 0.0 2.0 50 178
r 1.33496 0 2 tcp 1040 ------- 1 0.0 2.0 44 174
+ 1.33496 2 0 ack 40 ------- 1 2.0 0.0 47 189
- 1.33496 2 0 ack 40 ------- 1 2.0 0.0 47 189
r 1.3368 2 0 ack 40 ------- 1 2.0 0.0 47 185
- 1.33744 0 2 tcp 1040 ------- 1 0.0 2.0 51 179
r 1.33912 0 2 tcp 1040 ------- 1 0.0 2.0 48 176
+ 1.33912 2 0 ack 40 ------- 1 2.0 0.0 48 190
- 1.33912 2 0 ack 40 ------- 1 2.0 0.0 48 190
r 1.34096 2 0 ack 40 ------- 1 2.0 0.0 47 188
- 1.3416 0 2 tcp 1040 ------- 1 0.0 2.0 52 180
r 1.342571 1 2 cbr 1000 ------- 2 1.0 2.1 58 187
+ 1.342857 1 2 cbr 1000 ------- 2 1.0 2.1 59 191
- 1.342857 1 2 cbr 1000 ------- 2 1.0 2.1 59 191
r 1.34328 0 2 tcp 1040 ------- 1 0.0 2.0 49 177
+ 1.34328 2 0 ack 40 ------- 1 2.0 0.0 49 192
- 1.34328 2 0 ack 40 ------- 1 2.0 0.0 49 192
r 1.34512 2 0 ack 40 ------- 1 2.0 0.0 47 189
- 1.34576 0 2 tcp 1040 ------- 1 0.0 2.0 53 181
r 1.34744 0 2 tcp 1040 ------- 1 0.0 2.0 50 178
+ 1.34744 2 0 ack 40 ------- 1 2.0 0.0 50 193
- 1.34744 2 0 ack 40 ------- 1 2.0 0.0 50 193
r 1.34928 2 0 ack 40 ------- 1 2.0 0.0 48 190
- 1.34992 0 2 tcp 1040 ------- 1 0.0 2.0 54 182
r 1.3516 0 2 tcp 1040 ------- 1 0.0 2.0 51 179
+ 1.3516 2 0 ack 40 ------- 1 2.0 0.0 51 194
- 1.3516 2 0 ack 40 ------- 1 2.0 0.0 51 194
r 1.35344 2 0 ack 40 ------- 1 2.0 0.0 49 192
+ 1.35344 0 2 tcp 1040 ------- 1 0.0 2.0 57 195
+ 1.35344 0 2 tcp 1040 ------- 1 0.0 2.0 58 196
- 1.35408 0 2 tcp 1040 ------- 1 0.0 2.0 55 184
r 1.35576 0 2 tcp 1040 ------- 1 0.0 2.0 52 180
+ 1.35576 2 0 ack 40 ------- 1 2.0 0.0 52 197
- 1.35576 2 0 ack 40 ------- 1 2.0 0.0 52 197
r 1.356857 1 2 cbr 1000 ------- 2 1.0 2.1 59 191
+ 1.357143 1 2 cbr 1000 ------- 2 1.0 2.1 60 198
- 1.357143 1 2 cbr 1000 ------- 2 1.0 2.1 60 198
r 1.3576 2 0 ack 40 ------- 1 2.0 0.0 50 193
+ 1.3576 0 2 tcp 1040 ------- 1 0.0 2.0 59 199
+ 1.3576 0 2 tcp 1040 ------- 1 0.0 2.0 60 200
- 1.35824 0 2 tcp 1040 ------- 1 0.0 2.0 56 186
r 1.35992 0 2 tcp 1040 ------- 1 0.0 2.0 53 181
+ 1.35992 2 0 ack 40 ------- 1 2.0 0.0 53 201
- 1.35992 2 0 ack 40 ------- 1 2.0 0.0 53 201
r 1.36176 2 0 ack 40 ------- 1 2.0 0.0 51 194
+ 1.36176 0 2 tcp 1040 ------- 1 0.0 2.0 61 202
- 1.3624 0 2 tcp 1040 ------- 1 0.0 2.0 57 195
r 1.36408 0 2 tcp 1040 ------- 1 0.0 2.0 54 182
+ 1.36408 2 0 ack 40 ------- 1 2.0 0.0 54 203
- 1.36408 2 0 ack 40 ------- 1 2.0 0.0 54 203
r 1.36592 2 0 ack 40 ------- 1 2.0 0.0 52 197
+ 1.36592 0 2 tcp 1040 ------- 1 0.0 2.0 62 204
- 1.36656 0 2 tcp 1040 ------- 1 0.0 2.0 58 196
r 1.36824 0 2 tcp 1040 ------- 1 0.0 2.0 55 184
+ 1.36824 2 0 ack 40 ------- 1 2.0 0.0 55 205
- 1.36824 2 0 ack 40 ------- 1 2.0 0.0 55 205
r 1.37008 2 0 ack 40 ------- 1 2.0 0.0 53 201
+ 1.37008 0 2 tcp 1040 ------- 1 0.0 2.0 63 206
- 1.37072 0 2 tcp 1040 ------- 1 0.0 2.0 59 199
r 1.371143 1 2 cbr 1000 ------- 2 1.0 2.1 60 198
+ 1.371429 1 2 cbr 1000 ------- 2 1.0 2.1 61 207
- 1.371429 1 2 cbr 1000 ------- 2 1.0 2.1 61 207
r 1.3724 0 2 tcp 1040 ------- 1 0.0 2.0 56 186
+ 1.3724 2 0 ack 40 ------- 1 2.0 0.0 56 208
- 1.3724 2 0 ack 40 ------- 1 2.0 0.0 56 208
r 1.37424 2 0 ack 40 ------- 1 2.0 0.0 54 203
+ 1.37424 0 2 tcp 1040 ------- 1 0.0 2.0 64 209
- 1.37488 0 2 tcp 1040 ------- 1 0.0 2.0 60 200
r 1.37656 0 2 tcp 1040 ------- 1 0.0 2.0 57 195
+ 1.37656 2 0 ack 40 ------- 1 2.0 0.0 57 210
- 1.37656 2 0 ack 40 ------- 1 2.0 0.0 57 210
r 1.3784 2 0 ack 40 ------- 1 2.0 0.0 55 205
+ 1.3784 0 2 tcp 1040 ------- 1 0.0 2.0 65 211
- 1.37904 0 2 tcp 1040 ------- 1 0.0 2.0 61 202
r 1.38072 0 2 tcp 1040 ------- 1 0.0 2.0 58 196
+ 1.38072 2 0 ack 40 ------- 1 2.0 0.0 58 212
- 1.38072 2 0 ack 40 ------- 1 2.0 0.0 58 212
r 1.38256 2 0 ack 40 ------- 1 2.0 0.0 56 208
+ 1.38256 0 2 tcp 1040 ------- 1 0.0 2.0 66 213
- 1.3832 0 2 tcp 1040 ------- 1 0.0 2.0 62 204
r 1.38488 0 2 tcp 1040 ------- 1 0.0 2.0 59 199
+ 1.38488 2 0 ack 40 ------- 1 2.0 0.0 59 214
- 1.38488 2 0 ack 40 ------- 1 2.0 0.0 59 214
r 1.385429 1 2 cbr 1000 ------- 2 1.0 2.1 61 207
+ 1.385714 1 2 cbr 1000 ------- 2 1.0 2.1 62 215
- 1.385714 1 2 cbr 1000 ------- 2 1.0 2.1 62 215
r 1.38672 2 0 ack 40 ------- 1 2.0 0.0 57 210
+ 1.38672 0 2 tcp 1040 ------- 1 0.0 2.0 67 216
- 1.38736 0 2 tcp 1040 ------- 1 0.0 2.0 63 206
r 1.38904 0 2 tcp 1040 ------- 1 0.0 2.0 60 200
+ 1.38904 2 0 ack 40 ------- 1 2.0 0.0 60 217
- 1.38904 2 0 ack 40 ------- 1 2.0 0.0 60 217
r 1.39088 2 0 ack 40 ------- 1 2.0 0.0 58 212
+ 1.39088 0 2 tcp 1040 ------- 1 0.0 2.0 68 218
- 1.39152 0 2 tcp 1040 ------- 1 0.0 2.0 64 209
r 1.3932 0 2 tcp 1040 ------- 1 0.0 2.0 61 202
+ 1.3932 2 0 ack 40 ------- 1 2.0 0.0 61 219
- 1.3932 2 0 ack 40 ------- 1 2.0 0.0 61 219
r 1.39504 2 0 ack 40 ------- 1 2.0 0.0 59 214
+ 1.39504 0 2 tcp 1040 ------- 1 0.0 2.0 69 220
- 1.39568 0 2 tcp 1040 ------- 1 0.0 2.0 65 211
r 1.39736 0 2 tcp 1040 ------- 1 0.0 2.0 62 204