V -t * -v 1.0a5 -a 0
A -t * -n 1 -p 0 -o 0x7fffffff -c 30 -a 1
A -t * -h 1 -m 1073741823 -s 0
c -t * -i 4 -n Yellow
c -t * -i 1 -n Red
c -t * -i 2 -n Green
c -t * -i 3 -n Blue
n -t * -a 4 -s 4 -S UP -v circle -c black -i black
n -t * -a 0 -s 0 -S UP -v circle -c black -i black
n -t * -a 5 -s 5 -S UP -v circle -c black -i black
n -t * -a 1 -s 1 -S UP -v circle -c black -i black
n -t * -a 2 -s 2 -S UP -v circle -c black -i black
n -t * -a 3 -s 3 -S UP -v circle -c black -i black
l -t * -s 0 -d 2 -S UP -r 2000000 -D 0.01 -c black -o right-down
l -t * -s 1 -d 2 -S UP -r 2000000 -D 0.01 -c black -o left-down
l -t * -s 2 -d 3 -S UP -r 2000000 -D 0.01 -c black -o down
l -t * -s 3 -d 4 -S UP -r 2000000 -D 0.01 -c black -o left-down
l -t * -s 3 -d 5 -S UP -r 2000000 -D 0.01 -c black -o right-down
+ -t 0.055 -s 0 -d 2 -p ping -e 64 -c 1 -i 0 -a 1 -x {0.0 5.0 -1 ------- null}
- -t 0.055 -s 0 -d 2 -p ping -e 64 -c 1 -i 0 -a 1 -x {0.0 5.0 -1 ------- null}
h -t 0.055 -s 0 -d 2 -p ping -e 64 -c 1 -i 0 -a 1 -x {0.0 5.0 -1 ------- null}
+ -t 0.055 -s 1 -d 2 -p ping -e 64 -c 2 -i 1 -a 2 -x {1.0 4.0 -1 ------- null}
- -t 0.055 -s 1 -d 2 -p ping -e 64 -c 2 -i 1 -a 2 -x {1.0 4.0 -1 ------- null}
h -t 0.055 -s 1 -d 2 -p ping -e 64 -c 2 -i 1 -a 2 -x {1.0 4.0 -1 ------- null}
+ -t 0.055 -s 4 -d 3 -p ping -e 64 -c 3 -i 2 -a 3 -x {4.0 1.0 -1 ------- null}
- -t 0.055 -s 4 -d 3 -p ping -e 64 -c 3 -i 2 -a 3 -x {4.0 1.0 -1 ------- null}
h -t 0.055 -s 4 -d 3 -p ping -e 64 -c 3 -i 2 -a 3 -x {4.0 1.0 -1 ------- null}
+ -t 0.055 -s 5 -d 3 -p ping -e 64 -c 4 -i 3 -a 4 -x {5.0 0.0 -1 ------- null}
- -t 0.055 -s 5 -d 3 -p ping -e 64 -c 4 -i 3 -a 4 -x {5.0 0.0 -1 ------- null}
h -t 0.055 -s 5 -d 3 -p ping -e 64 -c 4 -i 3 -a 4 -x {5.0 0.0 -1 ------- null}
r -t 0.065256 -s 0 -d 2 -p ping -e 64 -c 1 -i 0 -a 1 -x {0.0 5.0 -1 ------- null}
+ -t 0.065256 -s 2 -d 3 -p ping -e 64 -c 1 -i 0 -a 1 -x {0.0 5.0 -1 ------- null}
- -t 0.065256 -s 2 -d 3 -p ping -e 64 -c 1 -i 0 -a 1 -x {0.0 5.0 -1 ------- null}
h -t 0.065256 -s 2 -d 3 -p ping -e 64 -c 1 -i 0 -a 1 -x {0.0 5.0 -1 ------- null}
r -t 0.065256 -s 1 -d 2 -p ping -e 64 -c 2 -i 1 -a 2 -x {1.0 4.0 -1 ------- null}
+ -t 0.065256 -s 2 -d 3 -p ping -e 64 -c 2 -i 1 -a 2 -x {1.0 4.0 -1 ------- null}
r -t 0.065256 -s 4 -d 3 -p ping -e 64 -c 3 -i 2 -a 3 -x {4.0 1.0 -1 ------- null}
+ -t 0.065256 -s 3 -d 2 -p ping -e 64 -c 3 -i 2 -a 3 -x {4.0 1.0 -1 ------- null}
- -t 0.065256 -s 3 -d 2 -p ping -e 64 -c 3 -i 2 -a 3 -x {4.0 1.0 -1 ------- null}
h -t 0.065256 -s 3 -d 2 -p ping -e 64 -c 3 -i 2 -a 3 -x {4.0 1.0 -1 ------- null}
r -t 0.065256 -s 5 -d 3 -p ping -e 64 -c 4 -i 3 -a 4 -x {5.0 0.0 -1 ------- null}
+ -t 0.065256 -s 3 -d 2 -p ping -e 64 -c 4 -i 3 -a 4 -x {5.0 0.0 -1 ------- null}
- -t 0.065512 -s 2 -d 3 -p ping -e 64 -c 2 -i 1 -a 2 -x {1.0 4.0 -1 ------- null}
h -t 0.065512 -s 2 -d 3 -p ping -e 64 -c 2 -i 1 -a 2 -x {1.0 4.0 -1 ------- null}
- -t 0.065512 -s 3 -d 2 -p ping -e 64 -c 4 -i 3 -a 4 -x {5.0 0.0 -1 ------- null}
h -t 0.065512 -s 3 -d 2 -p ping -e 64 -c 4 -i 3 -a 4 -x {5.0 0.0 -1 ------- null}
r -t 0.075512 -s 2 -d 3 -p ping -e 64 -c 1 -i 0 -a 1 -x {0.0 5.0 -1 ------- null}
+ -t 0.075512 -s 3 -d 5 -p ping -e 64 -c 1 -i 0 -a 1 -x {0.0 5.0 -1 ------- null}
- -t 0.075512 -s 3 -d 5 -p ping -e 64 -c 1 -i 0 -a 1 -x {0.0 5.0 -1 ------- null}
h -t 0.075512 -s 3 -d 5 -p ping -e 64 -c 1 -i 0 -a 1 -x {0.0 5.0 -1 ------- null}
r -t 0.075512 -s 3 -d 2 -p ping -e 64 -c 3 -i 2 -a 3 -x {4.0 1.0 -1 ------- null}
+ -t 0.075512 -s 2 -d 1 -p ping -e 64 -c 3 -i 2 -a 3 -x {4.0 1.0 -1 ------- null}
- -t 0.075512 -s 2 -d 1 -p ping -e 64 -c 3 -i 2 -a 3 -x {4.0 1.0 -1 ------- null}
h -t 0.075512 -s 2 -d 1 -p ping -e 64 -c 3 -i 2 -a 3 -x {4.0 1.0 -1 ------- null}
r -t 0.075768 -s 2 -d 3 -p ping -e 64 -c 2 -i 1 -a 2 -x {1.0 4.0 -1 ------- null}
+ -t 0.075768 -s 3 -d 4 -p ping -e 64 -c 2 -i 1 -a 2 -x {1.0 4.0 -1 ------- null}
- -t 0.075768 -s 3 -d 4 -p ping -e 64 -c 2 -i 1 -a 2 -x {1.0 4.0 -1 ------- null}
h -t 0.075768 -s 3 -d 4 -p ping -e 64 -c 2 -i 1 -a 2 -x {1.0 4.0 -1 ------- null}
r -t 0.075768 -s 3 -d 2 -p ping -e 64 -c 4 -i 3 -a 4 -x {5.0 0.0 -1 ------- null}
+ -t 0.075768 -s 2 -d 0 -p ping -e 64 -c 4 -i 3 -a 4 -x {5.0 0.0 -1 ------- null}
- -t 0.075768 -s 2 -d 0 -p ping -e 64 -c 4 -i 3 -a 4 -x {5.0 0.0 -1 ------- null}
h -t 0.075768 -s 2 -d 0 -p ping -e 64 -c 4 -i 3 -a 4 -x {5.0 0.0 -1 ------- null}
r -t 0.085768 -s 3 -d 5 -p ping -e 64 -c 1 -i 0 -a 1 -x {0.0 5.0 -1 ------- null}
+ -t 0.085768 -s 5 -d 3 -p ping -e 64 -c 4 -i 4 -a 4 -x {5.0 0.0 -1 ------- null}
- -t 0.085768 -s 5 -d 3 -p ping -e 64 -c 4 -i 4 -a 4 -x {5.0 0.0 -1 ------- null}
h -t 0.085768 -s 5 -d 3 -p ping -e 64 -c 4 -i 4 -a 4 -x {5.0 0.0 -1 ------- null}
r -t 0.085768 -s 2 -d 1 -p ping -e 64 -c 3 -i 2 -a 3 -x {4.0 1.0 -1 ------- null}
+ -t 0.085768 -s 1 -d 2 -p ping -e 64 -c 2 -i 5 -a 2 -x {1.0 4.0 -1 ------- null}
- -t 0.085768 -s 1 -d 2 -p ping -e 64 -c 2 -i 5 -a 2 -x {1.0 4.0 -1 ------- null}
h -t 0.085768 -s 1 -d 2 -p ping -e 64 -c 2 -i 5 -a 2 -x {1.0 4.0 -1 ------- null}
r -t 0.086024 -s 3 -d 4 -p ping -e 64 -c 2 -i 1 -a 2 -x {1.0 4.0 -1 ------- null}
+ -t 0.086024 -s 4 -d 3 -p ping -e 64 -c 3 -i 6 -a 3 -x {4.0 1.0 -1 ------- null}
- -t 0.086024 -s 4 -d 3 -p ping -e 64 -c 3 -i 6 -a 3 -x {4.0 1.0 -1 ------- null}
h -t 0.086024 -s 4 -d 3 -p ping -e 64 -c 3 -i 6 -a 3 -x {4.0 1.0 -1 ------- null}
r -t 0.086024 -s 2 -d 0 -p ping -e 64 -c 4 -i 3 -a 4 -x {5.0 0.0 -1 ------- null}
+ -t 0.086024 -s 0 -d 2 -p ping -e 64 -c 1 -i 7 -a 1 -x {0.0 5.0 -1 ------- null}
- -t 0.086024 -s 0 -d 2 -p ping -e 64 -c 1 -i 7 -a 1 -x {0.0 5.0 -1 ------- null}
h -t 0.086024 -s 0 -d 2 -p ping -e 64 -c 1 -i 7 -a 1 -x {0.0 5.0 -1 ------- null}
r -t 0.096024 -s 5 -d 3 -p ping -e 64 -c 4 -i 4 -a 4 -x {5.0 0.0 -1 ------- null}
+ -t 0.096024 -s 3 -d 2 -p ping -e 64 -c 4 -i 4 -a 4 -x {5.0 0.0 -1 ------- null}
- -t 0.096024 -s 3 -d 2 -p ping -e 64 -c 4 -i 4 -a 4 -x {5.0 0.0 -1 ------- null}
h -t 0.096024 -s 3 -d 2 -p ping -e 64 -c 4 -i 4 -a 4 -x {5.0 0.0 -1 ------- null}
r -t 0.096024 -s 1 -d 2 -p ping -e 64 -c 2 -i 5 -a 2 -x {1.0 4.0 -1 ------- null}
+ -t 0.096024 -s 2 -d 3 -p ping -e 64 -c 2 -i 5 -a 2 -x {1.0 4.0 -1 ------- null}
- -t 0.096024 -s 2 -d 3 -p ping -e 64 -c 2 -i 5 -a 2 -x {1.0 4.0 -1 ------- null}
h -t 0.096024 -s 2 -d 3 -p ping -e 64 -c 2 -i 5 -a 2 -x {1.0 4.0 -1 ------- null}
r -t 0.09628 -s 4 -d 3 -p ping -e 64 -c 3 -i 6 -a 3 -x {4.0 1.0 -1 ------- null}
+ -t 0.09628 -s 3 -d 2 -p ping -e 64 -c 3 -i 6 -a 3 -x {4.0 1.0 -1 ------- null}
r -t 0.09628 -s 0 -d 2 -p ping -e 64 -c 1 -i 7 -a 1 -x {0.0 5.0 -1 ------- null}
+ -t 0.09628 -s 2 -d 3 -p ping -e 64 -c 1 -i 7 -a 1 -x {0.0 5.0 -1 ------- null}
- -t 0.09628 -s 3 -d 2 -p ping -e 64 -c 3 -i 6 -a 3 -x {4.0 1.0 -1 ------- null}
h -t 0.09628 -s 3 -d 2 -p ping -e 64 -c 3 -i 6 -a 3 -x {4.0 1.0 -1 ------- null}
- -t 0.09628 -s 2 -d 3 -p ping -e 64 -c 1 -i 7 -a 1 -x {0.0 5.0 -1 ------- null}
h -t 0.09628 -s 2 -d 3 -p ping -e 64 -c 1 -i 7 -a 1 -x {0.0 5.0 -1 ------- null}
+ -t 0.1 -s 0 -d 2 -p ping -e 64 -c 1 -i 8 -a 1 -x {0.0 5.0 -1 ------- null}
- -t 0.1 -s 0 -d 2 -p ping -e 64 -c 1 -i 8 -a 1 -x {0.0 5.0 -1 ------- null}
h -t 0.1 -s 0 -d 2 -p ping -e 64 -c 1 -i 8 -a 1 -x {0.0 5.0 -1 ------- null}
+ -t 0.1 -s 1 -d 2 -p ping -e 64 -c 2 -i 9 -a 2 -x {1.0 4.0 -1 ------- null}
- -t 0.1 -s 1 -d 2 -p ping -e 64 -c 2 -i 9 -a 2 -x {1.0 4.0 -1 ------- null}
h -t 0.1 -s 1 -d 2 -p ping -e 64 -c 2 -i 9 -a 2 -x {1.0 4.0 -1 ------- null}
+ -t 0.1 -s 4 -d 3 -p ping -e 64 -c 3 -i 10 -a 3 -x {4.0 1.0 -1 ------- null}
- -t 0.1 -s 4 -d 3 -p ping -e 64 -c 3 -i 10 -a 3 -x {4.0 1.0 -1 ------- null}
h -t 0.1 -s 4 -d 3 -p ping -e 64 -c 3 -i 10 -a 3 -x {4.0 1.0 -1 ------- null}
+ -t 0.1 -s 5 -d 3 -p ping -e 64 -c 4 -i 11 -a 4 -x {5.0 0.0 -1 ------- null}
- -t 0.1 -s 5 -d 3 -p ping -e 64 -c 4 -i 11 -a 4 -x {5.0 0.0 -1 ------- null}
h -t 0.1 -s 5 -d 3 -p ping -e 64 -c 4 -i 11 -a 4 -x {5.0 0.0 -1 ------- null}
r -t 0.10628 -s 3 -d 2 -p ping -e 64 -c 4 -i 4 -a 4 -x {5.0 0.0 -1 ------- null}
+ -t 0.10628 -s 2 -d 0 -p ping -e 64 -c 4 -i 4 -a 4 -x {5.0 0.0 -1 ------- null}
- -t 0.10628 -s 2 -d 0 -p ping -e 64 -c 4 -i 4 -a 4 -x {5.0 0.0 -1 ------- null}
h -t 0.10628 -s 2 -d 0 -p ping -e 64 -c 4 -i 4 -a 4 -x {5.0 0.0 -1 ------- null}
r -t 0.10628 -s 2 -d 3 -p ping -e 64 -c 2 -i 5 -a 2 -x {1.0 4.0 -1 ------- null}
+ -t 0.10628 -s 3 -d 4 -p ping -e 64 -c 2 -i 5 -a 2 -x {1.0 4.0 -1 ------- null}
- -t 0.10628 -s 3 -d 4 -p ping -e 64 -c 2 -i 5 -a 2 -x {1.0 4.0 -1 ------- null}
h -t 0.10628 -s 3 -d 4 -p ping -e 64 -c 2 -i 5 -a 2 -x {1.0 4.0 -1 ------- null}
r -t 0.106536 -s 3 -d 2 -p ping -e 64 -c 3 -i 6 -a 3 -x {4.0 1.0 -1 ------- null}
+ -t 0.106536 -s 2 -d 1 -p ping -e 64 -c 3 -i 6 -a 3 -x {4.0 1.0 -1 ------- null}
- -t 0.106536 -s 2 -d 1 -p ping -e 64 -c 3 -i 6 -a 3 -x {4.0 1.0 -1 ------- null}
h -t 0.106536 -s 2 -d 1 -p ping -e 64 -c 3 -i 6 -a 3 -x {4.0 1.0 -1 ------- null}
r -t 0.106536 -s 2 -d 3 -p ping -e 64 -c 1 -i 7 -a 1 -x {0.0 5.0 -1 ------- null}
+ -t 0.106536 -s 3 -d 5 -p ping -e 64 -c 1 -i 7 -a 1 -x {0.0 5.0 -1 ------- null}
- -t 0.106536 -s 3 -d 5 -p ping -e 64 -c 1 -i 7 -a 1 -x {0.0 5.0 -1 ------- null}
h -t 0.106536 -s 3 -d 5 -p ping -e 64 -c 1 -i 7 -a 1 -x {0.0 5.0 -1 ------- null}
r -t 0.110256 -s 0 -d 2 -p ping -e 64 -c 1 -i 8 -a 1 -x {0.0 5.0 -1 ------- null}
+ -t 0.110256 -s 2 -d 3 -p ping -e 64 -c 1 -i 8 -a 1 -x {0.0 5.0 -1 ------- null}
- -t 0.110256 -s 2 -d 3 -p ping -e 64 -c 1 -i 8 -a 1 -x {0.0 5.0 -1 ------- null}
h -t 0.110256 -s 2 -d 3 -p ping -e 64 -c 1 -i 8 -a 1 -x {0.0 5.0 -1 ------- null}
r -t 0.110256 -s 1 -d 2 -p ping -e 64 -c 2 -i 9 -a 2 -x {1.0 4.0 -1 ------- null}
+ -t 0.110256 -s 2 -d 3 -p ping -e 64 -c 2 -i 9 -a 2 -x {1.0 4.0 -1 ------- null}
r -t 0.110256 -s 4 -d 3 -p ping -e 64 -c 3 -i 10 -a 3 -x {4.0 1.0 -1 ------- null}
+ -t 0.110256 -s 3 -d 2 -p ping -e 64 -c 3 -i 10 -a 3 -x {4.0 1.0 -1 ------- null}
- -t 0.110256 -s 3 -d 2 -p ping -e 64 -c 3 -i 10 -a 3 -x {4.0 1.0 -1 ------- null}
h -t 0.110256 -s 3 -d 2 -p ping -e 64 -c 3 -i 10 -a 3 -x {4.0 1.0 -1 ------- null}
r -t 0.110256 -s 5 -d 3 -p ping -e 64 -c 4 -i 11 -a 4 -x {5.0 0.0 -1 ------- null}
+ -t 0.110256 -s 3 -d 2 -p ping -e 64 -c 4 -i 11 -a 4 -x {5.0 0.0 -1 ------- null}
- -t 0.110512 -s 2 -d 3 -p ping -e 64 -c 2 -i 9 -a 2 -x {1.0 4.0 -1 ------- null}
h -t 0.110512 -s 2 -d 3 -p ping -e 64 -c 2 -i 9 -a 2 -x {1.0 4.0 -1 ------- null}
- -t 0.110512 -s 3 -d 2 -p ping -e 64 -c 4 -i 11 -a 4 -x {5.0 0.0 -1 ------- null}
h -t 0.110512 -s 3 -d 2 -p ping -e 64 -c 4 -i 11 -a 4 -x {5.0 0.0 -1 ------- null}
r -t 0.116536 -s 2 -d 0 -p ping -e 64 -c 4 -i 4 -a 4 -x {5.0 0.0 -1 ------- null}
r -t 0.116536 -s 3 -d 4 -p ping -e 64 -c 2 -i 5 -a 2 -x {1.0 4.0 -1 ------- null}
r -t 0.116792 -s 2 -d 1 -p ping -e 64 -c 3 -i 6 -a 3 -x {4.0 1.0 -1 ------- null}
r -t 0.116792 -s 3 -d 5 -p ping -e 64 -c 1 -i 7 -a 1 -x {0.0 5.0 -1 ------- null}
r -t 0.120512 -s 2 -d 3 -p ping -e 64 -c 1 -i 8 -a 1 -x {0.0 5.0 -1 ------- null}
+ -t 0.120512 -s 3 -d 5 -p ping -e 64 -c 1 -i 8 -a 1 -x {0.0 5.0 -1 ------- null}
- -t 0.120512 -s 3 -d 5 -p ping -e 64 -c 1 -i 8 -a 1 -x {0.0 5.0 -1 ------- null}
h -t 0.120512 -s 3 -d 5 -p ping -e 64 -c 1 -i 8 -a 1 -x {0.0 5.0 -1 ------- null}
r -t 0.120512 -s 3 -d 2 -p ping -e 64 -c 3 -i 10 -a 3 -x {4.0 1.0 -1 ------- null}
+ -t 0.120512 -s 2 -d 1 -p ping -e 64 -c 3 -i 10 -a 3 -x {4.0 1.0 -1 ------- null}
- -t 0.120512 -s 2 -d 1 -p ping -e 64 -c 3 -i 10 -a 3 -x {4.0 1.0 -1 ------- null}
h -t 0.120512 -s 2 -d 1 -p ping -e 64 -c 3 -i 10 -a 3 -x {4.0 1.0 -1 ------- null}
r -t 0.120768 -s 2 -d 3 -p ping -e 64 -c 2 -i 9 -a 2 -x {1.0 4.0 -1 ------- null}
+ -t 0.120768 -s 3 -d 4 -p ping -e 64 -c 2 -i 9 -a 2 -x {1.0 4.0 -1 ------- null}
- -t 0.120768 -s 3 -d 4 -p ping -e 64 -c 2 -i 9 -a 2 -x {1.0 4.0 -1 ------- null}
h -t 0.120768 -s 3 -d 4 -p ping -e 64 -c 2 -i 9 -a 2 -x {1.0 4.0 -1 ------- null}
r -t 0.120768 -s 3 -d 2 -p ping -e 64 -c 4 -i 11 -a 4 -x {5.0 0.0 -1 ------- null}
+ -t 0.120768 -s 2 -d 0 -p ping -e 64 -c 4 -i 11 -a 4 -x {5.0 0.0 -1 ------- null}
- -t 0.120768 -s 2 -d 0 -p ping -e 64 -c 4 -i 11 -a 4 -x {5.0 0.0 -1 ------- null}
h -t 0.120768 -s 2 -d 0 -p ping -e 64 -c 4 -i 11 -a 4 -x {5.0 0.0 -1 ------- null}
r -t 0.130768 -s 3 -d 5 -p ping -e 64 -c 1 -i 8 -a 1 -x {0.0 5.0 -1 ------- null}
+ -t 0.130768 -s 5 -d 3 -p ping -e 64 -c 4 -i 12 -a 4 -x {5.0 0.0 -1 ------- null}
- -t 0.130768 -s 5 -d 3 -p ping -e 64 -c 4 -i 12 -a 4 -x {5.0 0.0 -1 ------- null}
h -t 0.130768 -s 5 -d 3 -p ping -e 64 -c 4 -i 12 -a 4 -x {5.0 0.0 -1 ------- null}
r -t 0.130768 -s 2 -d 1 -p ping -e 64 -c 3 -i 10 -a 3 -x {4.0 1.0 -1 ------- null}
+ -t 0.130768 -s 1 -d 2 -p ping -e 64 -c 2 -i 13 -a 2 -x {1.0 4.0 -1 ------- null}
- -t 0.130768 -s 1 -d 2 -p ping -e 64 -c 2 -i 13 -a 2 -x {1.0 4.0 -1 ------- null}
h -t 0.130768 -s 1 -d 2 -p ping -e 64 -c 2 -i 13 -a 2 -x {1.0 4.0 -1 ------- null}
r -t 0.131024 -s 3 -d 4 -p ping -e 64 -c 2 -i 9 -a 2 -x {1.0 4.0 -1 ------- null}
+ -t 0.131024 -s 4 -d 3 -p ping -e 64 -c 3 -i 14 -a 3 -x {4.0 1.0 -1 ------- null}
- -t 0.131024 -s 4 -d 3 -p ping -e 64 -c 3 -i 14 -a 3 -x {4.0 1.0 -1 ------- null}
h -t 0.131024 -s 4 -d 3 -p ping -e 64 -c 3 -i 14 -a 3 -x {4.0 1.0 -1 ------- null}
r -t 0.131024 -s 2 -d 0 -p ping -e 64 -c 4 -i 11 -a 4 -x {5.0 0.0 -1 ------- null}
+ -t 0.131024 -s 0 -d 2 -p ping -e 64 -c 1 -i 15 -a 1 -x {0.0 5.0 -1 ------- null}
- -t 0.131024 -s 0 -d 2 -p ping -e 64 -c 1 -i 15 -a 1 -x {0.0 5.0 -1 ------- null}
h -t 0.131024 -s 0 -d 2 -p ping -e 64 -c 1 -i 15 -a 1 -x {0.0 5.0 -1 ------- null}
r -t 0.141024 -s 5 -d 3 -p ping -e 64 -c 4 -i 12 -a 4 -x {5.0 0.0 -1 ------- null}
+ -t 0.141024 -s 3 -d 2 -p ping -e 64 -c 4 -i 12 -a 4 -x {5.0 0.0 -1 ------- null}
- -t 0.141024 -s 3 -d 2 -p ping -e 64 -c 4 -i 12 -a 4 -x {5.0 0.0 -1 ------- null}
h -t 0.141024 -s 3 -d 2 -p ping -e 64 -c 4 -i 12 -a 4 -x {5.0 0.0 -1 ------- null}
r -t 0.141024 -s 1 -d 2 -p ping -e 64 -c 2 -i 13 -a 2 -x {1.0 4.0 -1 ------- null}
+ -t 0.141024 -s 2 -d 3 -p ping -e 64 -c 2 -i 13 -a 2 -x {1.0 4.0 -1 ------- null}
- -t 0.141024 -s 2 -d 3 -p ping -e 64 -c 2 -i 13 -a 2 -x {1.0 4.0 -1 ------- null}
h -t 0.141024 -s 2 -d 3 -p ping -e 64 -c 2 -i 13 -a 2 -x {1.0 4.0 -1 ------- null}
r -t 0.14128 -s 4 -d 3 -p ping -e 64 -c 3 -i 14 -a 3 -x {4.0 1.0 -1 ------- null}
+ -t 0.14128 -s 3 -d 2 -p ping -e 64 -c 3 -i 14 -a 3 -x {4.0 1.0 -1 ------- null}
r -t 0.14128 -s 0 -d 2 -p ping -e 64 -c 1 -i 15 -a 1 -x {0.0 5.0 -1 ------- null}
+ -t 0.14128 -s 2 -d 3 -p ping -e 64 -c 1 -i 15 -a 1 -x {0.0 5.0 -1 ------- null}
- -t 0.14128 -s 3 -d 2 -p ping -e 64 -c 3 -i 14 -a 3 -x {4.0 1.0 -1 ------- null}
h -t 0.14128 -s 3 -d 2 -p ping -e 64 -c 3 -i 14 -a 3 -x {4.0 1.0 -1 ------- null}
- -t 0.14128 -s 2 -d 3 -p ping -e 64 -c 1 -i 15 -a 1 -x {0.0 5.0 -1 ------- null}
h -t 0.14128 -s 2 -d 3 -p ping -e 64 -c 1 -i 15 -a 1 -x {0.0 5.0 -1 ------- null}
+ -t 0.145 -s 0 -d 2 -p ping -e 64 -c 1 -i 16 -a 1 -x {0.0 5.0 -1 ------- null}
- -t 0.145 -s 0 -d 2 -p ping -e 64 -c 1 -i 16 -a 1 -x {0.0 5.0 -1 ------- null}
h -t 0.145 -s 0 -d 2 -p ping -e 64 -c 1 -i 16 -a 1 -x {0.0 5.0 -1 ------- null}
+ -t 0.145 -s 1 -d 2 -p ping -e 64 -c 2 -i 17 -a 2 -x {1.0 4.0 -1 ------- null}
- -t 0.145 -s 1 -d 2 -p ping -e 64 -c 2 -i 17 -a 2 -x {1.0 4.0 -1 ------- null}
h -t 0.145 -s 1 -d 2 -p ping -e 64 -c 2 -i 17 -a 2 -x {1.0 4.0 -1 ------- null}
+ -t 0.145 -s 4 -d 3 -p ping -e 64 -c 3 -i 18 -a 3 -x {4.0 1.0 -1 ------- null}
- -t 0.145 -s 4 -d 3 -p ping -e 64 -c 3 -i 18 -a 3 -x {4.0 1.0 -1 ------- null}
h -t 0.145 -s 4 -d 3 -p ping -e 64 -c 3 -i 18 -a 3 -x {4.0 1.0 -1 ------- null}
+ -t 0.145 -s 5 -d 3 -p ping -e 64 -c 4 -i 19 -a 4 -x {5.0 0.0 -1 ------- null}
- -t 0.145 -s 5 -d 3 -p ping -e 64 -c 4 -i 19 -a 4 -x {5.0 0.0 -1 ------- null}
h -t 0.145 -s 5 -d 3 -p ping -e 64 -c 4 -i 19 -a 4 -x {5.0 0.0 -1 ------- null}
r -t 0.15128 -s 3 -d 2 -p ping -e 64 -c 4 -i 12 -a 4 -x {5.0 0.0 -1 ------- null}
+ -t 0.15128 -s 2 -d 0 -p ping -e 64 -c 4 -i 12 -a 4 -x {5.0 0.0 -1 ------- null}
- -t 0.15128 -s 2 -d 0 -p ping -e 64 -c 4 -i 12 -a 4 -x {5.0 0.0 -1 ------- null}
h -t 0.15128 -s 2 -d 0 -p ping -e 64 -c 4 -i 12 -a 4 -x {5.0 0.0 -1 ------- null}
r -t 0.15128 -s 2 -d 3 -p ping -e 64 -c 2 -i 13 -a 2 -x {1.0 4.0 -1 ------- null}
+ -t 0.15128 -s 3 -d 4 -p ping -e 64 -c 2 -i 13 -a 2 -x {1.0 4.0 -1 ------- null}
- -t 0.15128 -s 3 -d 4 -p ping -e 64 -c 2 -i 13 -a 2 -x {1.0 4.0 -1 ------- null}
h -t 0.15128 -s 3 -d 4 -p ping -e 64 -c 2 -i 13 -a 2 -x {1.0 4.0 -1 ------- null}
r -t 0.151536 -s 3 -d 2 -p ping -e 64 -c 3 -i 14 -a 3 -x {4.0 1.0 -1 ------- null}
+ -t 0.151536 -s 2 -d 1 -p ping -e 64 -c 3 -i 14 -a 3 -x {4.0 1.0 -1 ------- null}
- -t 0.151536 -s 2 -d 1 -p ping -e 64 -c 3 -i 14 -a 3 -x {4.0 1.0 -1 ------- null}
h -t 0.151536 -s 2 -d 1 -p ping -e 64 -c 3 -i 14 -a 3 -x {4.0 1.0 -1 ------- null}
r -t 0.151536 -s 2 -d 3 -p ping -e 64 -c 1 -i 15 -a 1 -x {0.0 5.0 -1 ------- null}
+ -t 0.151536 -s 3 -d 5 -p ping -e 64 -c 1 -i 15 -a 1 -x {0.0 5.0 -1 ------- null}
- -t 0.151536 -s 3 -d 5 -p ping -e 64 -c 1 -i 15 -a 1 -x {0.0 5.0 -1 ------- null}
h -t 0.151536 -s 3 -d 5 -p ping -e 64 -c 1 -i 15 -a 1 -x {0.0 5.0 -1 ------- null}
r -t 0.155256 -s 0 -d 2 -p ping -e 64 -c 1 -i 16 -a 1 -x {0.0 5.0 -1 ------- null}
+ -t 0.155256 -s 2 -d 3 -p ping -e 64 -c 1 -i 16 -a 1 -x {0.0 5.0 -1 ------- null}
- -t 0.155256 -s 2 -d 3 -p ping -e 64 -c 1 -i 16 -a 1 -x {0.0 5.0 -1 ------- null}
h -t 0.155256 -s 2 -d 3 -p ping -e 64 -c 1 -i 16 -a 1 -x {0.0 5.0 -1 ------- null}
r -t 0.155256 -s 1 -d 2 -p ping -e 64 -c 2 -i 17 -a 2 -x {1.0 4.0 -1 ------- null}
+ -t 0.155256 -s 2 -d 3 -p ping -e 64 -c 2 -i 17 -a 2 -x {1.0 4.0 -1 ------- null}
r -t 0.155256 -s 4 -d 3 -p ping -e 64 -c 3 -i 18 -a 3 -x {4.0 1.0 -1 ------- null}
+ -t 0.155256 -s 3 -d 2 -p ping -e 64 -c 3 -i 18 -a 3 -x {4.0 1.0 -1 ------- null}
- -t 0.155256 -s 3 -d 2 -p ping -e 64 -c 3 -i 18 -a 3 -x {4.0 1.0 -1 ------- null}
h -t 0.155256 -s 3 -d 2 -p ping -e 64 -c 3 -i 18 -a 3 -x {4.0 1.0 -1 ------- null}
r -t 0.155256 -s 5 -d 3 -p ping -e 64 -c 4 -i 19 -a 4 -x {5.0 0.0 -1 ------- null}
+ -t 0.155256 -s 3 -d 2 -p ping -e 64 -c 4 -i 19 -a 4 -x {5.0 0.0 -1 ------- null}
- -t 0.155512 -s 2 -d 3 -p ping -e 64 -c 2 -i 17 -a 2 -x {1.0 4.0 -1 ------- null}
h -t 0.155512 -s 2 -d 3 -p ping -e 64 -c 2 -i 17 -a 2 -x {1.0 4.0 -1 ------- null}
- -t 0.155512 -s 3 -d 2 -p ping -e 64 -c 4 -i 19 -a 4 -x {5.0 0.0 -1 ------- null}
h -t 0.155512 -s 3 -d 2 -p ping -e 64 -c 4 -i 19 -a 4 -x {5.0 0.0 -1 ------- null}
r -t 0.161536 -s 2 -d 0 -p ping -e 64 -c 4 -i 12 -a 4 -x {5.0 0.0 -1 ------- null}
r -t 0.161536 -s 3 -d 4 -p ping -e 64 -c 2 -i 13 -a 2 -x {1.0 4.0 -1 ------- null}
r -t 0.161792 -s 2 -d 1 -p ping -e 64 -c 3 -i 14 -a 3 -x {4.0 1.0 -1 ------- null}
r -t 0.161792 -s 3 -d 5 -p ping -e 64 -c 1 -i 15 -a 1 -x {0.0 5.0 -1 ------- null}
r -t 0.165512 -s 2 -d 3 -p ping -e 64 -c 1 -i 16 -a 1 -x {0.0 5.0 -1 ------- null}
+ -t 0.165512 -s 3 -d 5 -p ping -e 64 -c 1 -i 16 -a 1 -x {0.0 5.0 -1 ------- null}
- -t 0.165512 -s 3 -d 5 -p ping -e 64 -c 1 -i 16 -a 1 -x {0.0 5.0 -1 ------- null}
h -t 0.165512 -s 3 -d 5 -p ping -e 64 -c 1 -i 16 -a 1 -x {0.0 5.0 -1 ------- null}
r -t 0.165512 -s 3 -d 2 -p ping -e 64 -c 3 -i 18 -a 3 -x {4.0 1.0 -1 ------- null}
+ -t 0.165512 -s 2 -d 1 -p ping -e 64 -c 3 -i 18 -a 3 -x {4.0 1.0 -1 ------- null}
- -t 0.165512 -s 2 -d 1 -p ping -e 64 -c 3 -i 18 -a 3 -x {4.0 1.0 -1 ------- null}
h -t 0.165512 -s 2 -d 1 -p ping -e 64 -c 3 -i 18 -a 3 -x {4.0 1.0 -1 ------- null}
r -t 0.165768 -s 2 -d 3 -p ping -e 64 -c 2 -i 17 -a 2 -x {1.0 4.0 -1 ------- null}
+ -t 0.165768 -s 3 -d 4 -p ping -e 64 -c 2 -i 17 -a 2 -x {1.0 4.0 -1 ------- null}
- -t 0.165768 -s 3 -d 4 -p ping -e 64 -c 2 -i 17 -a 2 -x {1.0 4.0 -1 ------- null}
h -t 0.165768 -s 3 -d 4 -p ping -e 64 -c 2 -i 17 -a 2 -x {1.0 4.0 -1 ------- null}
r -t 0.165768 -s 3 -d 2 -p ping -e 64 -c 4 -i 19 -a 4 -x {5.0 0.0 -1 ------- null}
+ -t 0.165768 -s 2 -d 0 -p ping -e 64 -c 4 -i 19 -a 4 -x {5.0 0.0 -1 ------- null}
- -t 0.165768 -s 2 -d 0 -p ping -e 64 -c 4 -i 19 -a 4 -x {5.0 0.0 -1 ------- null}
h -t 0.165768 -s 2 -d 0 -p ping -e 64 -c 4 -i 19 -a 4 -x {5.0 0.0 -1 ------- null}
r -t 0.175768 -s 3 -d 5 -p ping -e 64 -c 1 -i 16 -a 1 -x {0.0 5.0 -1 ------- null}
+ -t 0.175768 -s 5 -d 3 -p ping -e 64 -c 4 -i 20 -a 4 -x {5.0 0.0 -1 ------- null}
- -t 0.175768 -s 5 -d 3 -p ping -e 64 -c 4 -i 20 -a 4 -x {5.0 0.0 -1 ------- null}
h -t 0.175768 -s 5 -d 3 -p ping -e 64 -c 4 -i 20 -a 4 -x {5.0 0.0 -1 ------- null}
r -t 0.175768 -s 2 -d 1 -p ping -e 64 -c 3 -i 18 -a 3 -x {4.0 1.0 -1 ------- null}
+ -t 0.175768 -s 1 -d 2 -p ping -e 64 -c 2 -i 21 -a 2 -x {1.0 4.0 -1 ------- null}
- -t 0.175768 -s 1 -d 2 -p ping -e 64 -c 2 -i 21 -a 2 -x {1.0 4.0 -1 ------- null}
h -t 0.175768 -s 1 -d 2 -p ping -e 64 -c 2 -i 21 -a 2 -x {1.0 4.0 -1 ------- null}
r -t 0.176024 -s 3 -d 4 -p ping -e 64 -c 2 -i 17 -a 2 -x {1.0 4.0 -1 ------- null}
+ -t 0.176024 -s 4 -d 3 -p ping -e 64 -c 3 -i 22 -a 3 -x {4.0 1.0 -1 ------- null}
- -t 0.176024 -s 4 -d 3 -p ping -e 64 -c 3 -i 22 -a 3 -x {4.0 1.0 -1 ------- null}
h -t 0.176024 -s 4 -d 3 -p ping -e 64 -c 3 -i 22 -a 3 -x {4.0 1.0 -1 ------- null}
r -t 0.176024 -s 2 -d 0 -p ping -e 64 -c 4 -i 19 -a 4 -x {5.0 0.0 -1 ------- null}
+ -t 0.176024 -s 0 -d 2 -p ping -e 64 -c 1 -i 23 -a 1 -x {0.0 5.0 -1 ------- null}
- -t 0.176024 -s 0 -d 2 -p ping -e 64 -c 1 -i 23 -a 1 -x {0.0 5.0 -1 ------- null}
h -t 0.176024 -s 0 -d 2 -p ping -e 64 -c 1 -i 23 -a 1 -x {0.0 5.0 -1 ------- null}
r -t 0.186024 -s 5 -d 3 -p ping -e 64 -c 4 -i 20 -a 4 -x {5.0 0.0 -1 ------- null}
+ -t 0.186024 -s 3 -d 2 -p ping -e 64 -c 4 -i 20 -a 4 -x {5.0 0.0 -1 ------- null}
- -t 0.186024 -s 3 -d 2 -p ping -e 64 -c 4 -i 20 -a 4 -x {5.0 0.0 -1 ------- null}
h -t 0.186024 -s 3 -d 2 -p ping -e 64 -c 4 -i 20 -a 4 -x {5.0 0.0 -1 ------- null}
r -t 0.186024 -s 1 -d 2 -p ping -e 64 -c 2 -i 21 -a 2 -x {1.0 4.0 -1 ------- null}
+ -t 0.186024 -s 2 -d 3 -p ping -e 64 -c 2 -i 21 -a 2 -x {1.0 4.0 -1 ------- null}
- -t 0.186024 -s 2 -d 3 -p ping -e 64 -c 2 -i 21 -a 2 -x {1.0 4.0 -1 ------- null}
h -t 0.186024 -s 2 -d 3 -p ping -e 64 -c 2 -i 21 -a 2 -x {1.0 4.0 -1 ------- null}
r -t 0.18628 -s 4 -d 3 -p ping -e 64 -c 3 -i 22 -a 3 -x {4.0 1.0 -1 ------- null}
+ -t 0.18628 -s 3 -d 2 -p ping -e 64 -c 3 -i 22 -a 3 -x {4.0 1.0 -1 ------- null}
r -t 0.18628 -s 0 -d 2 -p ping -e 64 -c 1 -i 23 -a 1 -x {0.0 5.0 -1 ------- null}
+ -t 0.18628 -s 2 -d 3 -p ping -e 64 -c 1 -i 23 -a 1 -x {0.0 5.0 -1 ------- null}
- -t 0.18628 -s 3 -d 2 -p ping -e 64 -c 3 -i 22 -a 3 -x {4.0 1.0 -1 ------- null}
h -t 0.18628 -s 3 -d 2 -p ping -e 64 -c 3 -i 22 -a 3 -x {4.0 1.0 -1 ------- null}
- -t 0.18628 -s 2 -d 3 -p ping -e 64 -c 1 -i 23 -a 1 -x {0.0 5.0 -1 ------- null}
h -t 0.18628 -s 2 -d 3 -p ping -e 64 -c 1 -i 23 -a 1 -x {0.0 5.0 -1 ------- null}
+ -t 0.19 -s 0 -d 2 -p ping -e 64 -c 1 -i 24 -a 1 -x {0.0 5.0 -1 ------- null}
- -t 0.19 -s 0 -d 2 -p ping -e 64 -c 1 -i 24 -a 1 -x {0.0 5.0 -1 ------- null}
h -t 0.19 -s 0 -d 2 -p ping -e 64 -c 1 -i 24 -a 1 -x {0.0 5.0 -1 ------- null}
+ -t 0.19 -s 1 -d 2 -p ping -e 64 -c 2 -i 25 -a 2 -x {1.0 4.0 -1 ------- null}
- -t 0.19 -s 1 -d 2 -p ping -e 64 -c 2 -i 25 -a 2 -x {1.0 4.0 -1 ------- null}
h -t 0.19 -s 1 -d 2 -p ping -e 64 -c 2 -i 25 -a 2 -x {1.0 4.0 -1 ------- null}
+ -t 0.19 -s 4 -d 3 -p ping -e 64 -c 3 -i 26 -a 3 -x {4.0 1.0 -1 ------- null}
- -t 0.19 -s 4 -d 3 -p ping -e 64 -c 3 -i 26 -a 3 -x {4.0 1.0 -1 ------- null}
h -t 0.19 -s 4 -d 3 -p ping -e 64 -c 3 -i 26 -a 3 -x {4.0 1.0 -1 ------- null}
+ -t 0.19 -s 5 -d 3 -p ping -e 64 -c 4 -i 27 -a 4 -x {5.0 0.0 -1 ------- null}
- -t 0.19 -s 5 -d 3 -p ping -e 64 -c 4 -i 27 -a 4 -x {5.0 0.0 -1 ------- null}
h -t 0.19 -s 5 -d 3 -p ping -e 64 -c 4 -i 27 -a 4 -x {5.0 0.0 -1 ------- null}
r -t 0.19628 -s 3 -d 2 -p ping -e 64 -c 4 -i 20 -a 4 -x {5.0 0.0 -1 ------- null}
+ -t 0.19628 -s 2 -d 0 -p ping -e 64 -c 4 -i 20 -a 4 -x {5.0 0.0 -1 ------- null}
- -t 0.19628 -s 2 -d 0 -p ping -e 64 -c 4 -i 20 -a 4 -x {5.0 0.0 -1 ------- null}
h -t 0.19628 -s 2 -d 0 -p ping -e 64 -c 4 -i 20 -a 4 -x {5.0 0.0 -1 ------- null}
r -t 0.19628 -s 2 -d 3 -p ping -e 64 -c 2 -i 21 -a 2 -x {1.0 4.0 -1 ------- null}
+ -t 0.19628 -s 3 -d 4 -p ping -e 64 -c 2 -i 21 -a 2 -x {1.0 4.0 -1 ------- null}
- -t 0.19628 -s 3 -d 4 -p ping -e 64 -c 2 -i 21 -a 2 -x {1.0 4.0 -1 ------- null}
h -t 0.19628 -s 3 -d 4 -p ping -e 64 -c 2 -i 21 -a 2 -x {1.0 4.0 -1 ------- null}
r -t 0.196536 -s 3 -d 2 -p ping -e 64 -c 3 -i 22 -a 3 -x {4.0 1.0 -1 ------- null}
+ -t 0.196536 -s 2 -d 1 -p ping -e 64 -c 3 -i 22 -a 3 -x {4.0 1.0 -1 ------- null}
- -t 0.196536 -s 2 -d 1 -p ping -e 64 -c 3 -i 22 -a 3 -x {4.0 1.0 -1 ------- null}
h -t 0.196536 -s 2 -d 1 -p ping -e 64 -c 3 -i 22 -a 3 -x {4.0 1.0 -1 ------- null}
r -t 0.196536 -s 2 -d 3 -p ping -e 64 -c 1 -i 23 -a 1 -x {0.0 5.0 -1 ------- null}
+ -t 0.196536 -s 3 -d 5 -p ping -e 64 -c 1 -i 23 -a 1 -x {0.0 5.0 -1 ------- null}
- -t 0.196536 -s 3 -d 5 -p ping -e 64 -c 1 -i 23 -a 1 -x {0.0 5.0 -1 ------- null}
h -t 0.196536 -s 3 -d 5 -p ping -e 64 -c 1 -i 23 -a 1 -x {0.0 5.0 -1 ------- null}
r -t 0.200256 -s 0 -d 2 -p ping -e 64 -c 1 -i 24 -a 1 -x {0.0 5.0 -1 ------- null}
+ -t 0.200256 -s 2 -d 3 -p ping -e 64 -c 1 -i 24 -a 1 -x {0.0 5.0 -1 ------- null}
- -t 0.200256 -s 2 -d 3 -p ping -e 64 -c 1 -i 24 -a 1 -x {0.0 5.0 -1 ------- null}
h -t 0.200256 -s 2 -d 3 -p ping -e 64 -c 1 -i 24 -a 1 -x {0.0 5.0 -1 ------- null}
r -t 0.200256 -s 1 -d 2 -p ping -e 64 -c 2 -i 25 -a 2 -x {1.0 4.0 -1 ------- null}
+ -t 0.200256 -s 2 -d 3 -p ping -e 64 -c 2 -i 25 -a 2 -x {1.0 4.0 -1 ------- null}
r -t 0.200256 -s 4 -d 3 -p ping -e 64 -c 3 -i 26 -a 3 -x {4.0 1.0 -1 ------- null}
+ -t 0.200256 -s 3 -d 2 -p ping -e 64 -c 3 -i 26 -a 3 -x {4.0 1.0 -1 ------- null}
- -t 0.200256 -s 3 -d 2 -p ping -e 64 -c 3 -i 26 -a 3 -x {4.0 1.0 -1 ------- null}
h -t 0.200256 -s 3 -d 2 -p ping -e 64 -c 3 -i 26 -a 3 -x {4.0 1.0 -1 ------- null}
r -t 0.200256 -s 5 -d 3 -p ping -e 64 -c 4 -i 27 -a 4 -x {5.0 0.0 -1 ------- null}
+ -t 0.200256 -s 3 -d 2 -p ping -e 64 -c 4 -i 27 -a 4 -x {5.0 0.0 -1 ------- null}
- -t 0.200512 -s 2 -d 3 -p ping -e 64 -c 2 -i 25 -a 2 -x {1.0 4.0 -1 ------- null}
h -t 0.200512 -s 2 -d 3 -p ping -e 64 -c 2 -i 25 -a 2 -x {1.0 4.0 -1 ------- null}
- -t 0.200512 -s 3 -d 2 -p ping -e 64 -c 4 -i 27 -a 4 -x {5.0 0.0 -1 ------- null}
h -t 0.200512 -s 3 -d 2 -p ping -e 64 -c 4 -i 27 -a 4 -x {5.0 0.0 -1 ------- null}
r -t 0.206536 -s 2 -d 0 -p ping -e 64 -c 4 -i 20 -a 4 -x {5.0 0.0 -1 ------- null}
r -t 0.206536 -s 3 -d 4 -p ping -e 64 -c 2 -i 21 -a 2 -x {1.0 4.0 -1 ------- null}
r -t 0.206792 -s 2 -d 1 -p ping -e 64 -c 3 -i 22 -a 3 -x {4.0 1.0 -1 ------- null}
r -t 0.206792 -s 3 -d 5 -p ping -e 64 -c 1 -i 23 -a 1 -x {0.0 5.0 -1 ------- null}
r -t 0.210512 -s 2 -d 3 -p ping -e 64 -c 1 -i 24 -a 1 -x {0.0 5.0 -1 ------- null}
+ -t 0.210512 -s 3 -d 5 -p ping -e 64 -c 1 -i 24 -a 1 -x {0.0 5.0 -1 ------- null}
- -t 0.210512 -s 3 -d 5 -p ping -e 64 -c 1 -i 24 -a 1 -x {0.0 5.0 -1 ------- null}
h -t 0.210512 -s 3 -d 5 -p ping -e 64 -c 1 -i 24 -a 1 -x {0.0 5.0 -1 ------- null}
r -t 0.210512 -s 3 -d 2 -p ping -e 64 -c 3 -i 26 -a 3 -x {4.0 1.0 -1 ------- null}
+ -t 0.210512 -s 2 -d 1 -p ping -e 64 -c 3 -i 26 -a 3 -x {4.0 1.0 -1 ------- null}
- -t 0.210512 -s 2 -d 1 -p ping -e 64 -c 3 -i 26 -a 3 -x {4.0 1.0 -1 ------- null}
h -t 0.210512 -s 2 -d 1 -p ping -e 64 -c 3 -i 26 -a 3 -x {4.0 1.0 -1 ------- null}
r -t 0.210768 -s 2 -d 3 -p ping -e 64 -c 2 -i 25 -a 2 -x {1.0 4.0 -1 ------- null}
+ -t 0.210768 -s 3 -d 4 -p ping -e 64 -c 2 -i 25 -a 2 -x {1.0 4.0 -1 ------- null}
- -t 0.210768 -s 3 -d 4 -p ping -e 64 -c 2 -i 25 -a 2 -x {1.0 4.0 -1 ------- null}
h -t 0.210768 -s 3 -d 4 -p ping -e 64 -c 2 -i 25 -a 2 -x {1.0 4.0 -1 ------- null}
r -t 0.210768 -s 3 -d 2 -p ping -e 64 -c 4 -i 27 -a 4 -x {5.0 0.0 -1 ------- null}
+ -t 0.210768 -s 2 -d 0 -p ping -e 64 -c 4 -i 27 -a 4 -x {5.0 0.0 -1 ------- null}
- -t 0.210768 -s 2 -d 0 -p ping -e 64 -c 4 -i 27 -a 4 -x {5.0 0.0 -1 ------- null}
h -t 0.210768 -s 2 -d 0 -p ping -e 64 -c 4 -i 27 -a 4 -x {5.0 0.0 -1 ------- null}
r -t 0.220768 -s 3 -d 5 -p ping -e 64 -c 1 -i 24 -a 1 -x {0.0 5.0 -1 ------- null}
+ -t 0.220768 -s 5 -d 3 -p ping -e 64 -c 4 -i 28 -a 4 -x {5.0 0.0 -1 ------- null}
- -t 0.220768 -s 5 -d 3 -p ping -e 64 -c 4 -i 28 -a 4 -x {5.0 0.0 -1 ------- null}
h -t 0.220768 -s 5 -d 3 -p ping -e 64 -c 4 -i 28 -a 4 -x {5.0 0.0 -1 ------- null}
r -t 0.220768 -s 2 -d 1 -p ping -e 64 -c 3 -i 26 -a 3 -x {4.0 1.0 -1 ------- null}
+ -t 0.220768 -s 1 -d 2 -p ping -e 64 -c 2 -i 29 -a 2 -x {1.0 4.0 -1 ------- null}
- -t 0.220768 -s 1 -d 2 -p ping -e 64 -c 2 -i 29 -a 2 -x {1.0 4.0 -1 ------- null}
h -t 0.220768 -s 1 -d 2 -p ping -e 64 -c 2 -i 29 -a 2 -x {1.0 4.0 -1 ------- null}
r -t 0.221024 -s 3 -d 4 -p ping -e 64 -c 2 -i 25 -a 2 -x {1.0 4.0 -1 ------- null}
+ -t 0.221024 -s 4 -d 3 -p ping -e 64 -c 3 -i 30 -a 3 -x {4.0 1.0 -1 ------- null}
- -t 0.221024 -s 4 -d 3 -p ping -e 64 -c 3 -i 30 -a 3 -x {4.0 1.0 -1 ------- null}
h -t 0.221024 -s 4 -d 3 -p ping -e 64 -c 3 -i 30 -a 3 -x {4.0 1.0 -1 ------- null}
r -t 0.221024 -s 2 -d 0 -p ping -e 64 -c 4 -i 27 -a 4 -x {5.0 0.0 -1 ------- null}
+ -t 0.221024 -s 0 -d 2 -p ping -e 64 -c 1 -i 31 -a 1 -x {0.0 5.0 -1 ------- null}
- -t 0.221024 -s 0 -d 2 -p ping -e 64 -c 1 -i 31 -a 1 -x {0.0 5.0 -1 ------- null}
h -t 0.221024 -s 0 -d 2 -p ping -e 64 -c 1 -i 31 -a 1 -x {0.0 5.0 -1 ------- null}
r -t 0.231024 -s 5 -d 3 -p ping -e 64 -c 4 -i 28 -a 4 -x {5.0 0.0 -1 ------- null}
+ -t 0.231024 -s 3 -d 2 -p ping -e 64 -c 4 -i 28 -a 4 -x {5.0 0.0 -1 ------- null}
- -t 0.231024 -s 3 -d 2 -p ping -e 64 -c 4 -i 28 -a 4 -x {5.0 0.0 -1 ------- null}
h -t 0.231024 -s 3 -d 2 -p ping -e 64 -c 4 -i 28 -a 4 -x {5.0 0.0 -1 ------- null}
r -t 0.231024 -s 1 -d 2 -p ping -e 64 -c 2 -i 29 -a 2 -x {1.0 4.0 -1 ------- null}
+ -t 0.231024 -s 2 -d 3 -p ping -e 64 -c 2 -i 29 -a 2 -x {1.0 4.0 -1 ------- null}
- -t 0.231024 -s 2 -d 3 -p ping -e 64 -c 2 -i 29 -a 2 -x {1.0 4.0 -1 ------- null}
h -t 0.231024 -s 2 -d 3 -p ping -e 64 -c 2 -i 29 -a 2 -x {1.0 4.0 -1 ------- null}