+ 0.055 0 2 ping 64 ------- 1 0.0 5.0 -1 0
- 0.055 0 2 ping 64 ------- 1 0.0 5.0 -1 0
+ 0.055 1 2 ping 64 ------- 2 1.0 4.0 -1 1
- 0.055 1 2 ping 64 ------- 2 1.0 4.0 -1 1
+ 0.055 4 3 ping 64 ------- 3 4.0 1.0 -1 2
- 0.055 4 3 ping 64 ------- 3 4.0 1.0 -1 2
+ 0.055 5 3 ping 64 ------- 4 5.0 0.0 -1 3
- 0.055 5 3 ping 64 ------- 4 5.0 0.0 -1 3
r 0.065256 0 2 ping 64 ------- 1 0.0 5.0 -1 0
+ 0.065256 2 3 ping 64 ------- 1 0.0 5.0 -1 0
- 0.065256 2 3 ping 64 ------- 1 0.0 5.0 -1 0
r 0.065256 1 2 ping 64 ------- 2 1.0 4.0 -1 1
+ 0.065256 2 3 ping 64 ------- 2 1.0 4.0 -1 1
r 0.065256 4 3 ping 64 ------- 3 4.0 1.0 -1 2
+ 0.065256 3 2 ping 64 ------- 3 4.0 1.0 -1 2
- 0.065256 3 2 ping 64 ------- 3 4.0 1.0 -1 2
r 0.065256 5 3 ping 64 ------- 4 5.0 0.0 -1 3
+ 0.065256 3 2 ping 64 ------- 4 5.0 0.0 -1 3
- 0.065512 2 3 ping 64 ------- 2 1.0 4.0 -1 1
- 0.065512 3 2 ping 64 ------- 4 5.0 0.0 -1 3
r 0.075512 2 3 ping 64 ------- 1 0.0 5.0 -1 0
+ 0.075512 3 5 ping 64 ------- 1 0.0 5.0 -1 0
- 0.075512 3 5 ping 64 ------- 1 0.0 5.0 -1 0
r 0.075512 3 2 ping 64 ------- 3 4.0 1.0 -1 2
+ 0.075512 2 1 ping 64 ------- 3 4.0 1.0 -1 2
- 0.075512 2 1 ping 64 ------- 3 4.0 1.0 -1 2
r 0.075768 2 3 ping 64 ------- 2 1.0 4.0 -1 1
+ 0.075768 3 4 ping 64 ------- 2 1.0 4.0 -1 1
- 0.075768 3 4 ping 64 ------- 2 1.0 4.0 -1 1
r 0.075768 3 2 ping 64 ------- 4 5.0 0.0 -1 3
+ 0.075768 2 0 ping 64 ------- 4 5.0 0.0 -1 3
- 0.075768 2 0 ping 64 ------- 4 5.0 0.0 -1 3
r 0.085768 3 5 ping 64 ------- 1 0.0 5.0 -1 0
+ 0.085768 5 3 ping 64 ------- 4 5.0 0.0 -1 4
- 0.085768 5 3 ping 64 ------- 4 5.0 0.0 -1 4
r 0.085768 2 1 ping 64 ------- 3 4.0 1.0 -1 2
+ 0.085768 1 2 ping 64 ------- 2 1.0 4.0 -1 5
- 0.085768 1 2 ping 64 ------- 2 1.0 4.0 -1 5
r 0.086024 3 4 ping 64 ------- 2 1.0 4.0 -1 1
+ 0.086024 4 3 ping 64 ------- 3 4.0 1.0 -1 6
- 0.086024 4 3 ping 64 ------- 3 4.0 1.0 -1 6
r 0.086024 2 0 ping 64 ------- 4 5.0 0.0 -1 3
+ 0.086024 0 2 ping 64 ------- 1 0.0 5.0 -1 7
- 0.086024 0 2 ping 64 ------- 1 0.0 5.0 -1 7
r 0.096024 5 3 ping 64 ------- 4 5.0 0.0 -1 4
+ 0.096024 3 2 ping 64 ------- 4 5.0 0.0 -1 4
- 0.096024 3 2 ping 64 ------- 4 5.0 0.0 -1 4
r 0.096024 1 2 ping 64 ------- 2 1.0 4.0 -1 5
+ 0.096024 2 3 ping 64 ------- 2 1.0 4.0 -1 5
- 0.096024 2 3 ping 64 ------- 2 1.0 4.0 -1 5
r 0.09628 4 3 ping 64 ------- 3 4.0 1.0 -1 6
+ 0.09628 3 2 ping 64 ------- 3 4.0 1.0 -1 6
r 0.09628 0 2 ping 64 ------- 1 0.0 5.0 -1 7
+ 0.09628 2 3 ping 64 ------- 1 0.0 5.0 -1 7
- 0.09628 3 2 ping 64 ------- 3 4.0 1.0 -1 6
- 0.09628 2 3 ping 64 ------- 1 0.0 5.0 -1 7
+ 0.1 0 2 ping 64 ------- 1 0.0 5.0 -1 8
- 0.1 0 2 ping 64 ------- 1 0.0 5.0 -1 8
+ 0.1 1 2 ping 64 ------- 2 1.0 4.0 -1 9
- 0.1 1 2 ping 64 ------- 2 1.0 4.0 -1 9
+ 0.1 4 3 ping 64 ------- 3 4.0 1.0 -1 10
- 0.1 4 3 ping 64 ------- 3 4.0 1.0 -1 10
+ 0.1 5 3 ping 64 ------- 4 5.0 0.0 -1 11
- 0.1 5 3 ping 64 ------- 4 5.0 0.0 -1 11
r 0.10628 3 2 ping 64 ------- 4 5.0 0.0 -1 4
+ 0.10628 2 0 ping 64 ------- 4 5.0 0.0 -1 4
- 0.10628 2 0 ping 64 ------- 4 5.0 0.0 -1 4
r 0.10628 2 3 ping 64 ------- 2 1.0 4.0 -1 5
+ 0.10628 3 4 ping 64 ------- 2 1.0 4.0 -1 5
- 0.10628 3 4 ping 64 ------- 2 1.0 4.0 -1 5
r 0.106536 3 2 ping 64 ------- 3 4.0 1.0 -1 6
+ 0.106536 2 1 ping 64 ------- 3 4.0 1.0 -1 6
- 0.106536 2 1 ping 64 ------- 3 4.0 1.0 -1 6
r 0.106536 2 3 ping 64 ------- 1 0.0 5.0 -1 7
+ 0.106536 3 5 ping 64 ------- 1 0.0 5.0 -1 7
- 0.106536 3 5 ping 64 ------- 1 0.0 5.0 -1 7
r 0.110256 0 2 ping 64 ------- 1 0.0 5.0 -1 8
+ 0.110256 2 3 ping 64 ------- 1 0.0 5.0 -1 8
- 0.110256 2 3 ping 64 ------- 1 0.0 5.0 -1 8
r 0.110256 1 2 ping 64 ------- 2 1.0 4.0 -1 9
+ 0.110256 2 3 ping 64 ------- 2 1.0 4.0 -1 9
r 0.110256 4 3 ping 64 ------- 3 4.0 1.0 -1 10
+ 0.110256 3 2 ping 64 ------- 3 4.0 1.0 -1 10
- 0.110256 3 2 ping 64 ------- 3 4.0 1.0 -1 10
r 0.110256 5 3 ping 64 ------- 4 5.0 0.0 -1 11
+ 0.110256 3 2 ping 64 ------- 4 5.0 0.0 -1 11
- 0.110512 2 3 ping 64 ------- 2 1.0 4.0 -1 9
- 0.110512 3 2 ping 64 ------- 4 5.0 0.0 -1 11
r 0.116536 2 0 ping 64 ------- 4 5.0 0.0 -1 4
r 0.116536 3 4 ping 64 ------- 2 1.0 4.0 -1 5
r 0.116792 2 1 ping 64 ------- 3 4.0 1.0 -1 6
r 0.116792 3 5 ping 64 ------- 1 0.0 5.0 -1 7
r 0.120512 2 3 ping 64 ------- 1 0.0 5.0 -1 8
+ 0.120512 3 5 ping 64 ------- 1 0.0 5.0 -1 8
- 0.120512 3 5 ping 64 ------- 1 0.0 5.0 -1 8
r 0.120512 3 2 ping 64 ------- 3 4.0 1.0 -1 10
+ 0.120512 2 1 ping 64 ------- 3 4.0 1.0 -1 10
- 0.120512 2 1 ping 64 ------- 3 4.0 1.0 -1 10
r 0.120768 2 3 ping 64 ------- 2 1.0 4.0 -1 9
+ 0.120768 3 4 ping 64 ------- 2 1.0 4.0 -1 9
- 0.120768 3 4 ping 64 ------- 2 1.0 4.0 -1 9
r 0.120768 3 2 ping 64 ------- 4 5.0 0.0 -1 11
+ 0.120768 2 0 ping 64 ------- 4 5.0 0.0 -1 11
- 0.120768 2 0 ping 64 ------- 4 5.0 0.0 -1 11
r 0.130768 3 5 ping 64 ------- 1 0.0 5.0 -1 8
+ 0.130768 5 3 ping 64 ------- 4 5.0 0.0 -1 12
- 0.130768 5 3 ping 64 ------- 4 5.0 0.0 -1 12
r 0.130768 2 1 ping 64 ------- 3 4.0 1.0 -1 10
+ 0.130768 1 2 ping 64 ------- 2 1.0 4.0 -1 13
- 0.130768 1 2 ping 64 ------- 2 1.0 4.0 -1 13
r 0.131024 3 4 ping 64 ------- 2 1.0 4.0 -1 9
+ 0.131024 4 3 ping 64 ------- 3 4.0 1.0 -1 14
- 0.131024 4 3 ping 64 ------- 3 4.0 1.0 -1 14
r 0.131024 2 0 ping 64 ------- 4 5.0 0.0 -1 11
+ 0.131024 0 2 ping 64 ------- 1 0.0 5.0 -1 15
- 0.131024 0 2 ping 64 ------- 1 0.0 5.0 -1 15
r 0.141024 5 3 ping 64 ------- 4 5.0 0.0 -1 12
+ 0.141024 3 2 ping 64 ------- 4 5.0 0.0 -1 12
- 0.141024 3 2 ping 64 ------- 4 5.0 0.0 -1 12
r 0.141024 1 2 ping 64 ------- 2 1.0 4.0 -1 13
+ 0.141024 2 3 ping 64 ------- 2 1.0 4.0 -1 13
- 0.141024 2 3 ping 64 ------- 2 1.0 4.0 -1 13
r 0.14128 4 3 ping 64 ------- 3 4.0 1.0 -1 14
+ 0.14128 3 2 ping 64 ------- 3 4.0 1.0 -1 14
r 0.14128 0 2 ping 64 ------- 1 0.0 5.0 -1 15
+ 0.14128 2 3 ping 64 ------- 1 0.0 5.0 -1 15
- 0.14128 3 2 ping 64 ------- 3 4.0 1.0 -1 14
- 0.14128 2 3 ping 64 ------- 1 0.0 5.0 -1 15
+ 0.145 0 2 ping 64 ------- 1 0.0 5.0 -1 16
- 0.145 0 2 ping 64 ------- 1 0.0 5.0 -1 16
+ 0.145 1 2 ping 64 ------- 2 1.0 4.0 -1 17
- 0.145 1 2 ping 64 ------- 2 1.0 4.0 -1 17
+ 0.145 4 3 ping 64 ------- 3 4.0 1.0 -1 18
- 0.145 4 3 ping 64 ------- 3 4.0 1.0 -1 18
+ 0.145 5 3 ping 64 ------- 4 5.0 0.0 -1 19
- 0.145 5 3 ping 64 ------- 4 5.0 0.0 -1 19
r 0.15128 3 2 ping 64 ------- 4 5.0 0.0 -1 12
+ 0.15128 2 0 ping 64 ------- 4 5.0 0.0 -1 12
- 0.15128 2 0 ping 64 ------- 4 5.0 0.0 -1 12
r 0.15128 2 3 ping 64 ------- 2 1.0 4.0 -1 13
+ 0.15128 3 4 ping 64 ------- 2 1.0 4.0 -1 13
- 0.15128 3 4 ping 64 ------- 2 1.0 4.0 -1 13
r 0.151536 3 2 ping 64 ------- 3 4.0 1.0 -1 14
+ 0.151536 2 1 ping 64 ------- 3 4.0 1.0 -1 14
- 0.151536 2 1 ping 64 ------- 3 4.0 1.0 -1 14
r 0.151536 2 3 ping 64 ------- 1 0.0 5.0 -1 15
+ 0.151536 3 5 ping 64 ------- 1 0.0 5.0 -1 15
- 0.151536 3 5 ping 64 ------- 1 0.0 5.0 -1 15
r 0.155256 0 2 ping 64 ------- 1 0.0 5.0 -1 16
+ 0.155256 2 3 ping 64 ------- 1 0.0 5.0 -1 16
- 0.155256 2 3 ping 64 ------- 1 0.0 5.0 -1 16
r 0.155256 1 2 ping 64 ------- 2 1.0 4.0 -1 17
+ 0.155256 2 3 ping 64 ------- 2 1.0 4.0 -1 17
r 0.155256 4 3 ping 64 ------- 3 4.0 1.0 -1 18
+ 0.155256 3 2 ping 64 ------- 3 4.0 1.0 -1 18
- 0.155256 3 2 ping 64 ------- 3 4.0 1.0 -1 18
r 0.155256 5 3 ping 64 ------- 4 5.0 0.0 -1 19
+ 0.155256 3 2 ping 64 ------- 4 5.0 0.0 -1 19
- 0.155512 2 3 ping 64 ------- 2 1.0 4.0 -1 17
- 0.155512 3 2 ping 64 ------- 4 5.0 0.0 -1 19
r 0.161536 2 0 ping 64 ------- 4 5.0 0.0 -1 12
r 0.161536 3 4 ping 64 ------- 2 1.0 4.0 -1 13
r 0.161792 2 1 ping 64 ------- 3 4.0 1.0 -1 14
r 0.161792 3 5 ping 64 ------- 1 0.0 5.0 -1 15
r 0.165512 2 3 ping 64 ------- 1 0.0 5.0 -1 16
+ 0.165512 3 5 ping 64 ------- 1 0.0 5.0 -1 16
- 0.165512 3 5 ping 64 ------- 1 0.0 5.0 -1 16
r 0.165512 3 2 ping 64 ------- 3 4.0 1.0 -1 18
+ 0.165512 2 1 ping 64 ------- 3 4.0 1.0 -1 18
- 0.165512 2 1 ping 64 ------- 3 4.0 1.0 -1 18
r 0.165768 2 3 ping 64 ------- 2 1.0 4.0 -1 17
+ 0.165768 3 4 ping 64 ------- 2 1.0 4.0 -1 17
- 0.165768 3 4 ping 64 ------- 2 1.0 4.0 -1 17
r 0.165768 3 2 ping 64 ------- 4 5.0 0.0 -1 19
+ 0.165768 2 0 ping 64 ------- 4 5.0 0.0 -1 19
- 0.165768 2 0 ping 64 ------- 4 5.0 0.0 -1 19
r 0.175768 3 5 ping 64 ------- 1 0.0 5.0 -1 16
+ 0.175768 5 3 ping 64 ------- 4 5.0 0.0 -1 20
- 0.175768 5 3 ping 64 ------- 4 5.0 0.0 -1 20
r 0.175768 2 1 ping 64 ------- 3 4.0 1.0 -1 18
+ 0.175768 1 2 ping 64 ------- 2 1.0 4.0 -1 21
- 0.175768 1 2 ping 64 ------- 2 1.0 4.0 -1 21
r 0.176024 3 4 ping 64 ------- 2 1.0 4.0 -1 17
+ 0.176024 4 3 ping 64 ------- 3 4.0 1.0 -1 22
- 0.176024 4 3 ping 64 ------- 3 4.0 1.0 -1 22
r 0.176024 2 0 ping 64 ------- 4 5.0 0.0 -1 19
+ 0.176024 0 2 ping 64 ------- 1 0.0 5.0 -1 23
- 0.176024 0 2 ping 64 ------- 1 0.0 5.0 -1 23
r 0.186024 5 3 ping 64 ------- 4 5.0 0.0 -1 20
+ 0.186024 3 2 ping 64 ------- 4 5.0 0.0 -1 20
- 0.186024 3 2 ping 64 ------- 4 5.0 0.0 -1 20
r 0.186024 1 2 ping 64 ------- 2 1.0 4.0 -1 21
+ 0.186024 2 3 ping 64 ------- 2 1.0 4.0 -1 21
- 0.186024 2 3 ping 64 ------- 2 1.0 4.0 -1 21
r 0.18628 4 3 ping 64 ------- 3 4.0 1.0 -1 22
+ 0.18628 3 2 ping 64 ------- 3 4.0 1.0 -1 22
r 0.18628 0 2 ping 64 ------- 1 0.0 5.0 -1 23
+ 0.18628 2 3 ping 64 ------- 1 0.0 5.0 -1 23
- 0.18628 3 2 ping 64 ------- 3 4.0 1.0 -1 22
- 0.18628 2 3 ping 64 ------- 1 0.0 5.0 -1 23
+ 0.19 0 2 ping 64 ------- 1 0.0 5.0 -1 24
- 0.19 0 2 ping 64 ------- 1 0.0 5.0 -1 24
+ 0.19 1 2 ping 64 ------- 2 1.0 4.0 -1 25
- 0.19 1 2 ping 64 ------- 2 1.0 4.0 -1 25
+ 0.19 4 3 ping 64 ------- 3 4.0 1.0 -1 26
- 0.19 4 3 ping 64 ------- 3 4.0 1.0 -1 26
+ 0.19 5 3 ping 64 ------- 4 5.0 0.0 -1 27
- 0.19 5 3 ping 64 ------- 4 5.0 0.0 -1 27
r 0.19628 3 2 ping 64 ------- 4 5.0 0.0 -1 20
+ 0.19628 2 0 ping 64 ------- 4 5.0 0.0 -1 20
- 0.19628 2 0 ping 64 ------- 4 5.0 0.0 -1 20
r 0.19628 2 3 ping 64 ------- 2 1.0 4.0 -1 21
+ 0.19628 3 4 ping 64 ------- 2 1.0 4.0 -1 21
- 0.19628 3 4 ping 64 ------- 2 1.0 4.0 -1 21
r 0.196536 3 2 ping 64 ------- 3 4.0 1.0 -1 22
+ 0.196536 2 1 ping 64 ------- 3 4.0 1.0 -1 22
- 0.196536 2 1 ping 64 ------- 3 4.0 1.0 -1 22
r 0.196536 2 3 ping 64 ------- 1 0.0 5.0 -1 23
+ 0.196536 3 5 ping 64 ------- 1 0.0 5.0 -1 23
- 0.196536 3 5 ping 64 ------- 1 0.0 5.0 -1 23
r 0.200256 0 2 ping 64 ------- 1 0.0 5.0 -1 24
+ 0.200256 2 3 ping 64 ------- 1 0.0 5.0 -1 24
- 0.200256 2 3 ping 64 ------- 1 0.0 5.0 -1 24
r 0.200256 1 2 ping 64 ------- 2 1.0 4.0 -1 25
+ 0.200256 2 3 ping 64 ------- 2 1.0 4.0 -1 25
r 0.200256 4 3 ping 64 ------- 3 4.0 1.0 -1 26
+ 0.200256 3 2 ping 64 ------- 3 4.0 1.0 -1 26
- 0.200256 3 2 ping 64 ------- 3 4.0 1.0 -1 26
r 0.200256 5 3 ping 64 ------- 4 5.0 0.0 -1 27
+ 0.200256 3 2 ping 64 ------- 4 5.0 0.0 -1 27
- 0.200512 2 3 ping 64 ------- 2 1.0 4.0 -1 25
- 0.200512 3 2 ping 64 ------- 4 5.0 0.0 -1 27
r 0.206536 2 0 ping 64 ------- 4 5.0 0.0 -1 20
r 0.206536 3 4 ping 64 ------- 2 1.0 4.0 -1 21
r 0.206792 2 1 ping 64 ------- 3 4.0 1.0 -1 22
r 0.206792 3 5 ping 64 ------- 1 0.0 5.0 -1 23
r 0.210512 2 3 ping 64 ------- 1 0.0 5.0 -1 24
+ 0.210512 3 5 ping 64 ------- 1 0.0 5.0 -1 24
- 0.210512 3 5 ping 64 ------- 1 0.0 5.0 -1 24
r 0.210512 3 2 ping 64 ------- 3 4.0 1.0 -1 26
+ 0.210512 2 1 ping 64 ------- 3 4.0 1.0 -1 26
- 0.210512 2 1 ping 64 ------- 3 4.0 1.0 -1 26
r 0.210768 2 3 ping 64 ------- 2 1.0 4.0 -1 25
+ 0.210768 3 4 ping 64 ------- 2 1.0 4.0 -1 25
- 0.210768 3 4 ping 64 ------- 2 1.0 4.0 -1 25
r 0.210768 3 2 ping 64 ------- 4 5.0 0.0 -1 27
+ 0.210768 2 0 ping 64 ------- 4 5.0 0.0 -1 27
- 0.210768 2 0 ping 64 ------- 4 5.0 0.0 -1 27
r 0.220768 3 5 ping 64 ------- 1 0.0 5.0 -1 24
+ 0.220768 5 3 ping 64 ------- 4 5.0 0.0 -1 28
- 0.220768 5 3 ping 64 ------- 4 5.0 0.0 -1 28
r 0.220768 2 1 ping 64 ------- 3 4.0 1.0 -1 26
+ 0.220768 1 2 ping 64 ------- 2 1.0 4.0 -1 29
- 0.220768 1 2 ping 64 ------- 2 1.0 4.0 -1 29
r 0.221024 3 4 ping 64 ------- 2 1.0 4.0 -1 25
+ 0.221024 4 3 ping 64 ------- 3 4.0 1.0 -1 30
- 0.221024 4 3 ping 64 ------- 3 4.0 1.0 -1 30
r 0.221024 2 0 ping 64 ------- 4 5.0 0.0 -1 27
+ 0.221024 0 2 ping 64 ------- 1 0.0 5.0 -1 31
- 0.221024 0 2 ping 64 ------- 1 0.0 5.0 -1 31
r 0.231024 5 3 ping 64 ------- 4 5.0 0.0 -1 28
+ 0.231024 3 2 ping 64 ------- 4 5.0 0.0 -1 28
- 0.231024 3 2 ping 64 ------- 4 5.0 0.0 -1 28
r 0.231024 1 2 ping 64 ------- 2 1.0 4.0 -1 29
+ 0.231024 2 3 ping 64 ------- 2 1.0 4.0 -1 29
- 0.231024 2 3 ping 64 ------- 2 1.0 4.0 -1 29
r 0.23128 4 3 ping 64 ------- 3 4.0 1.0 -1 30
+ 0.23128 3 2 ping 64 ------- 3 4.0 1.0 -1 30
r 0.23128 0 2 ping 64 ------- 1 0.0 5.0 -1 31
+ 0.23128 2 3 ping 64 ------- 1 0.0 5.0 -1 31
- 0.23128 3 2 ping 64 ------- 3 4.0 1.0 -1 30
- 0.23128 2 3 ping 64 ------- 1 0.0 5.0 -1 31
+ 0.235 0 2 ping 64 ------- 1 0.0 5.0 -1 32
- 0.235 0 2 ping 64 ------- 1 0.0 5.0 -1 32
+ 0.235 1 2 ping 64 ------- 2 1.0 4.0 -1 33
- 0.235 1 2 ping 64 ------- 2 1.0 4.0 -1 33
+ 0.235 4 3 ping 64 ------- 3 4.0 1.0 -1 34
- 0.235 4 3 ping 64 ------- 3 4.0 1.0 -1 34
+ 0.235 5 3 ping 64 ------- 4 5.0 0.0 -1 35
- 0.235 5 3 ping 64 ------- 4 5.0 0.0 -1 35
r 0.24128 3 2 ping 64 ------- 4 5.0 0.0 -1 28
+ 0.24128 2 0 ping 64 ------- 4 5.0 0.0 -1 28
- 0.24128 2 0 ping 64 ------- 4 5.0 0.0 -1 28
r 0.24128 2 3 ping 64 ------- 2 1.0 4.0 -1 29
+ 0.24128 3 4 ping 64 ------- 2 1.0 4.0 -1 29
- 0.24128 3 4 ping 64 ------- 2 1.0 4.0 -1 29
r 0.241536 3 2 ping 64 ------- 3 4.0 1.0 -1 30
+ 0.241536 2 1 ping 64 ------- 3 4.0 1.0 -1 30
- 0.241536 2 1 ping 64 ------- 3 4.0 1.0 -1 30
r 0.241536 2 3 ping 64 ------- 1 0.0 5.0 -1 31
+ 0.241536 3 5 ping 64 ------- 1 0.0 5.0 -1 31
- 0.241536 3 5 ping 64 ------- 1 0.0 5.0 -1 31
r 0.245256 0 2 ping 64 ------- 1 0.0 5.0 -1 32
+ 0.245256 2 3 ping 64 ------- 1 0.0 5.0 -1 32
- 0.245256 2 3 ping 64 ------- 1 0.0 5.0 -1 32
r 0.245256 1 2 ping 64 ------- 2 1.0 4.0 -1 33
+ 0.245256 2 3 ping 64 ------- 2 1.0 4.0 -1 33
r 0.245256 4 3 ping 64 ------- 3 4.0 1.0 -1 34
+ 0.245256 3 2 ping 64 ------- 3 4.0 1.0 -1 34
- 0.245256 3 2 ping 64 ------- 3 4.0 1.0 -1 34
r 0.245256 5 3 ping 64 ------- 4 5.0 0.0 -1 35
+ 0.245256 3 2 ping 64 ------- 4 5.0 0.0 -1 35
- 0.245512 2 3 ping 64 ------- 2 1.0 4.0 -1 33
- 0.245512 3 2 ping 64 ------- 4 5.0 0.0 -1 35
r 0.251536 2 0 ping 64 ------- 4 5.0 0.0 -1 28
r 0.251536 3 4 ping 64 ------- 2 1.0 4.0 -1 29
r 0.251792 2 1 ping 64 ------- 3 4.0 1.0 -1 30
r 0.251792 3 5 ping 64 ------- 1 0.0 5.0 -1 31
r 0.255512 2 3 ping 64 ------- 1 0.0 5.0 -1 32
+ 0.255512 3 5 ping 64 ------- 1 0.0 5.0 -1 32
- 0.255512 3 5 ping 64 ------- 1 0.0 5.0 -1 32
r 0.255512 3 2 ping 64 ------- 3 4.0 1.0 -1 34
+ 0.255512 2 1 ping 64 ------- 3 4.0 1.0 -1 34
- 0.255512 2 1 ping 64 ------- 3 4.0 1.0 -1 34
r 0.255768 2 3 ping 64 ------- 2 1.0 4.0 -1 33
+ 0.255768 3 4 ping 64 ------- 2 1.0 4.0 -1 33
- 0.255768 3 4 ping 64 ------- 2 1.0 4.0 -1 33
r 0.255768 3 2 ping 64 ------- 4 5.0 0.0 -1 35
+ 0.255768 2 0 ping 64 ------- 4 5.0 0.0 -1 35
- 0.255768 2 0 ping 64 ------- 4 5.0 0.0 -1 35
r 0.265768 3 5 ping 64 ------- 1 0.0 5.0 -1 32
+ 0.265768 5 3 ping 64 ------- 4 5.0 0.0 -1 36
- 0.265768 5 3 ping 64 ------- 4 5.0 0.0 -1 36
r 0.265768 2 1 ping 64 ------- 3 4.0 1.0 -1 34
+ 0.265768 1 2 ping 64 ------- 2 1.0 4.0 -1 37
- 0.265768 1 2 ping 64 ------- 2 1.0 4.0 -1 37
r 0.266024 3 4 ping 64 ------- 2 1.0 4.0 -1 33
+ 0.266024 4 3 ping 64 ------- 3 4.0 1.0 -1 38
- 0.266024 4 3 ping 64 ------- 3 4.0 1.0 -1 38
r 0.266024 2 0 ping 64 ------- 4 5.0 0.0 -1 35
+ 0.266024 0 2 ping 64 ------- 1 0.0 5.0 -1 39
- 0.266024 0 2 ping 64 ------- 1 0.0 5.0 -1 39
r 0.276024 5 3 ping 64 ------- 4 5.0 0.0 -1 36
+ 0.276024 3 2 ping 64 ------- 4 5.0 0.0 -1 36
- 0.276024 3 2 ping 64 ------- 4 5.0 0.0 -1 36
r 0.276024 1 2 ping 64 ------- 2 1.0 4.0 -1 37
+ 0.276024 2 3 ping 64 ------- 2 1.0 4.0 -1 37
- 0.276024 2 3 ping 64 ------- 2 1.0 4.0 -1 37
r 0.27628 4 3 ping 64 ------- 3 4.0 1.0 -1 38
+ 0.27628 3 2 ping 64 ------- 3 4.0 1.0 -1 38
- 0.27628 3 2 ping 64 ------- 3 4.0 1.0 -1 38
r 0.27628 0 2 ping 64 ------- 1 0.0 5.0 -1 39
+ 0.27628 2 3 ping 64 ------- 1 0.0 5.0 -1 39
- 0.27628 2 3 ping 64 ------- 1 0.0 5.0 -1 39
+ 0.28 0 2 ping 64 ------- 1 0.0 5.0 -1 40
- 0.28 0 2 ping 64 ------- 1 0.0 5.0 -1 40
+ 0.28 1 2 ping 64 ------- 2 1.0 4.0 -1 41
- 0.28 1 2 ping 64 ------- 2 1.0 4.0 -1 41
+ 0.28 4 3 ping 64 ------- 3 4.0 1.0 -1 42
- 0.28 4 3 ping 64 ------- 3 4.0 1.0 -1 42
+ 0.28 5 3 ping 64 ------- 4 5.0 0.0 -1 43
- 0.28 5 3 ping 64 ------- 4 5.0 0.0 -1 43
r 0.28628 3 2 ping 64 ------- 4 5.0 0.0 -1 36
+ 0.28628 2 0 ping 64 ------- 4 5.0 0.0 -1 36
- 0.28628 2 0 ping 64 ------- 4 5.0 0.0 -1 36
r 0.28628 2 3 ping 64 ------- 2 1.0 4.0 -1 37
+ 0.28628 3 4 ping 64 ------- 2 1.0 4.0 -1 37
- 0.28628 3 4 ping 64 ------- 2 1.0 4.0 -1 37
r 0.286536 3 2 ping 64 ------- 3 4.0 1.0 -1 38
+ 0.286536 2 1 ping 64 ------- 3 4.0 1.0 -1 38
- 0.286536 2 1 ping 64 ------- 3 4.0 1.0 -1 38
r 0.286536 2 3 ping 64 ------- 1 0.0 5.0 -1 39
+ 0.286536 3 5 ping 64 ------- 1 0.0 5.0 -1 39
- 0.286536 3 5 ping 64 ------- 1 0.0 5.0 -1 39
r 0.290256 0 2 ping 64 ------- 1 0.0 5.0 -1 40
+ 0.290256 2 3 ping 64 ------- 1 0.0 5.0 -1 40
- 0.290256 2 3 ping 64 ------- 1 0.0 5.0 -1 40
r 0.290256 1 2 ping 64 ------- 2 1.0 4.0 -1 41
+ 0.290256 2 3 ping 64 ------- 2 1.0 4.0 -1 41
r 0.290256 4 3 ping 64 ------- 3 4.0 1.0 -1 42
+ 0.290256 3 2 ping 64 ------- 3 4.0 1.0 -1 42
- 0.290256 3 2 ping 64 ------- 3 4.0 1.0 -1 42
r 0.290256 5 3 ping 64 ------- 4 5.0 0.0 -1 43
+ 0.290256 3 2 ping 64 ------- 4 5.0 0.0 -1 43
- 0.290512 2 3 ping 64 ------- 2 1.0 4.0 -1 41
- 0.290512 3 2 ping 64 ------- 4 5.0 0.0 -1 43
r 0.296536 2 0 ping 64 ------- 4 5.0 0.0 -1 36
r 0.296536 3 4 ping 64 ------- 2 1.0 4.0 -1 37
r 0.296792 2 1 ping 64 ------- 3 4.0 1.0 -1 38
r 0.296792 3 5 ping 64 ------- 1 0.0 5.0 -1 39
r 0.300512 2 3 ping 64 ------- 1 0.0 5.0 -1 40
+ 0.300512 3 5 ping 64 ------- 1 0.0 5.0 -1 40
- 0.300512 3 5 ping 64 ------- 1 0.0 5.0 -1 40
r 0.300512 3 2 ping 64 ------- 3 4.0 1.0 -1 42
+ 0.300512 2 1 ping 64 ------- 3 4.0 1.0 -1 42
- 0.300512 2 1 ping 64 ------- 3 4.0 1.0 -1 42
r 0.300768 2 3 ping 64 ------- 2 1.0 4.0 -1 41
+ 0.300768 3 4 ping 64 ------- 2 1.0 4.0 -1 41
- 0.300768 3 4 ping 64 ------- 2 1.0 4.0 -1 41
r 0.300768 3 2 ping 64 ------- 4 5.0 0.0 -1 43
+ 0.300768 2 0 ping 64 ------- 4 5.0 0.0 -1 43
- 0.300768 2 0 ping 64 ------- 4 5.0 0.0 -1 43
r 0.310768 3 5 ping 64 ------- 1 0.0 5.0 -1 40
+ 0.310768 5 3 ping 64 ------- 4 5.0 0.0 -1 44
- 0.310768 5 3 ping 64 ------- 4 5.0 0.0 -1 44
r 0.310768 2 1 ping 64 ------- 3 4.0 1.0 -1 42
+ 0.310768 1 2 ping 64 ------- 2 1.0 4.0 -1 45
- 0.310768 1 2 ping 64 ------- 2 1.0 4.0 -1 45
r 0.311024 3 4 ping 64 ------- 2 1.0 4.0 -1 41
+ 0.311024 4 3 ping 64 ------- 3 4.0 1.0 -1 46
- 0.311024 4 3 ping 64 ------- 3 4.0 1.0 -1 46
r 0.311024 2 0 ping 64 ------- 4 5.0 0.0 -1 43
+ 0.311024 0 2 ping 64 ------- 1 0.0 5.0 -1 47
- 0.311024 0 2 ping 64 ------- 1 0.0 5.0 -1 47
r 0.321024 5 3 ping 64 ------- 4 5.0 0.0 -1 44
+ 0.321024 3 2 ping 64 ------- 4 5.0 0.0 -1 44
- 0.321024 3 2 ping 64 ------- 4 5.0 0.0 -1 44
r 0.321024 1 2 ping 64 ------- 2 1.0 4.0 -1 45
+ 0.321024 2 3 ping 64 ------- 2 1.0 4.0 -1 45
- 0.321024 2 3 ping 64 ------- 2 1.0 4.0 -1 45
r 0.32128 4 3 ping 64 ------- 3 4.0 1.0 -1 46
+ 0.32128 3 2 ping 64 ------- 3 4.0 1.0 -1 46
r 0.32128 0 2 ping 64 ------- 1 0.0 5.0 -1 47
+ 0.32128 2 3 ping 64 ------- 1 0.0 5.0 -1 47
- 0.32128 3 2 ping 64 ------- 3 4.0 1.0 -1 46
- 0.32128 2 3 ping 64 ------- 1 0.0 5.0 -1 47
+ 0.325 0 2 ping 64 ------- 1 0.0 5.0 -1 48
- 0.325 0 2 ping 64 ------- 1 0.0 5.0 -1 48
+ 0.325 1 2 ping 64 ------- 2 1.0 4.0 -1 49
- 0.325 1 2 ping 64 ------- 2 1.0 4.0 -1 49
+ 0.325 4 3 ping 64 ------- 3 4.0 1.0 -1 50
- 0.325 4 3 ping 64 ------- 3 4.0 1.0 -1 50
+ 0.325 5 3 ping 64 ------- 4 5.0 0.0 -1 51
- 0.325 5 3 ping 64 ------- 4 5.0 0.0 -1 51
r 0.33128 3 2 ping 64 ------- 4 5.0 0.0 -1 44
+ 0.33128 2 0 ping 64 ------- 4 5.0 0.0 -1 44
- 0.33128 2 0 ping 64 ------- 4 5.0 0.0 -1 44
r 0.33128 2 3 ping 64 ------- 2 1.0 4.0 -1 45
+ 0.33128 3 4 ping 64 ------- 2 1.0 4.0 -1 45
- 0.33128 3 4 ping 64 ------- 2 1.0 4.0 -1 45
r 0.331536 3 2 ping 64 ------- 3 4.0 1.0 -1 46
+ 0.331536 2 1 ping 64 ------- 3 4.0 1.0 -1 46
- 0.331536 2 1 ping 64 ------- 3 4.0 1.0 -1 46
r 0.331536 2 3 ping 64 ------- 1 0.0 5.0 -1 47
+ 0.331536 3 5 ping 64 ------- 1 0.0 5.0 -1 47
- 0.331536 3 5 ping 64 ------- 1 0.0 5.0 -1 47
r 0.335256 0 2 ping 64 ------- 1 0.0 5.0 -1 48
+ 0.335256 2 3 ping 64 ------- 1 0.0 5.0 -1 48
- 0.335256 2 3 ping 64 ------- 1 0.0 5.0 -1 48
r 0.335256 1 2 ping 64 ------- 2 1.0 4.0 -1 49
+ 0.335256 2 3 ping 64 ------- 2 1.0 4.0 -1 49
r 0.335256 4 3 ping 64 ------- 3 4.0 1.0 -1 50
+ 0.335256 3 2 ping 64 ------- 3 4.0 1.0 -1 50
- 0.335256 3 2 ping 64 ------- 3 4.0 1.0 -1 50
r 0.335256 5 3 ping 64 ------- 4 5.0 0.0 -1 51
+ 0.335256 3 2 ping 64 ------- 4 5.0 0.0 -1 51
- 0.335512 2 3 ping 64 ------- 2 1.0 4.0 -1 49
- 0.335512 3 2 ping 64 ------- 4 5.0 0.0 -1 51
r 0.341536 2 0 ping 64 ------- 4 5.0 0.0 -1 44
r 0.341536 3 4 ping 64 ------- 2 1.0 4.0 -1 45
r 0.341792 2 1 ping 64 ------- 3 4.0 1.0 -1 46
r 0.341792 3 5 ping 64 ------- 1 0.0 5.0 -1 47
r 0.345512 2 3 ping 64 ------- 1 0.0 5.0 -1 48
+ 0.345512 3 5 ping 64 ------- 1 0.0 5.0 -1 48
- 0.345512 3 5 ping 64 ------- 1 0.0 5.0 -1 48
r 0.345512 3 2 ping 64 ------- 3 4.0 1.0 -1 50
+ 0.345512 2 1 ping 64 ------- 3 4.0 1.0 -1 50
- 0.345512 2 1 ping 64 ------- 3 4.0 1.0 -1 50
r 0.345768 2 3 ping 64 ------- 2 1.0 4.0 -1 49
+ 0.345768 3 4 ping 64 ------- 2 1.0 4.0 -1 49
- 0.345768 3 4 ping 64 ------- 2 1.0 4.0 -1 49
r 0.345768 3 2 ping 64 ------- 4 5.0 0.0 -1 51
+ 0.345768 2 0 ping 64 ------- 4 5.0 0.0 -1 51
- 0.345768 2 0 ping 64 ------- 4 5.0 0.0 -1 51
r 0.355768 3 5 ping 64 ------- 1 0.0 5.0 -1 48
+ 0.355768 5 3 ping 64 ------- 4 5.0 0.0 -1 52
- 0.355768 5 3 ping 64 ------- 4 5.0 0.0 -1 52
r 0.355768 2 1 ping 64 ------- 3 4.0 1.0 -1 50
+ 0.355768 1 2 ping 64 ------- 2 1.0 4.0 -1 53
- 0.355768 1 2 ping 64 ------- 2 1.0 4.0 -1 53
r 0.356024 3 4 ping 64 ------- 2 1.0 4.0 -1 49
+ 0.356024 4 3 ping 64 ------- 3 4.0 1.0 -1 54
- 0.356024 4 3 ping 64 ------- 3 4.0 1.0 -1 54
r 0.356024 2 0 ping 64 ------- 4 5.0 0.0 -1 51
+ 0.356024 0 2 ping 64 ------- 1 0.0 5.0 -1 55
- 0.356024 0 2 ping 64 ------- 1 0.0 5.0 -1 55
r 0.366024 5 3 ping 64 ------- 4 5.0 0.0 -1 52
+ 0.366024 3 2 ping 64 ------- 4 5.0 0.0 -1 52
- 0.366024 3 2 ping 64 ------- 4 5.0 0.0 -1 52
r 0.366024 1 2 ping 64 ------- 2 1.0 4.0 -1 53
+ 0.366024 2 3 ping 64 ------- 2 1.0 4.0 -1 53
- 0.366024 2 3 ping 64 ------- 2 1.0 4.0 -1 53
r 0.36628 4 3 ping 64 ------- 3 4.0 1.0 -1 54
+ 0.36628 3 2 ping 64 ------- 3 4.0 1.0 -1 54
r 0.36628 0 2 ping 64 ------- 1 0.0 5.0 -1 55
+ 0.36628 2 3 ping 64 ------- 1 0.0 5.0 -1 55
- 0.36628 3 2 ping 64 ------- 3 4.0 1.0 -1 54
- 0.36628 2 3 ping 64 ------- 1 0.0 5.0 -1 55
+ 0.37 0 2 ping 64 ------- 1 0.0 5.0 -1 56
- 0.37 0 2 ping 64 ------- 1 0.0 5.0 -1 56
+ 0.37 1 2 ping 64 ------- 2 1.0 4.0 -1 57
- 0.37 1 2 ping 64 ------- 2 1.0 4.0 -1 57
+ 0.37 4 3 ping 64 ------- 3 4.0 1.0 -1 58
- 0.37 4 3 ping 64 ------- 3 4.0 1.0 -1 58
+ 0.37 5 3 ping 64 ------- 4 5.0 0.0 -1 59
- 0.37 5 3 ping 64 ------- 4 5.0 0.0 -1 59
r 0.37628 3 2 ping 64 ------- 4 5.0 0.0 -1 52
+ 0.37628 2 0 ping 64 ------- 4 5.0 0.0 -1 52
- 0.37628 2 0 ping 64 ------- 4 5.0 0.0 -1 52
r 0.37628 2 3 ping 64 ------- 2 1.0 4.0 -1 53
+ 0.37628 3 4 ping 64 ------- 2 1.0 4.0 -1 53
- 0.37628 3 4 ping 64 ------- 2 1.0 4.0 -1 53
r 0.376536 3 2 ping 64 ------- 3 4.0 1.0 -1 54
+ 0.376536 2 1 ping 64 ------- 3 4.0 1.0 -1 54
- 0.376536 2 1 ping 64 ------- 3 4.0 1.0 -1 54
r 0.376536 2 3 ping 64 ------- 1 0.0 5.0 -1 55
+ 0.376536 3 5 ping 64 ------- 1 0.0 5.0 -1 55
- 0.376536 3 5 ping 64 ------- 1 0.0 5.0 -1 55
r 0.380256 0 2 ping 64 ------- 1 0.0 5.0 -1 56
+ 0.380256 2 3 ping 64 ------- 1 0.0 5.0 -1 56
- 0.380256 2 3 ping 64 ------- 1 0.0 5.0 -1 56
r 0.380256 1 2 ping 64 ------- 2 1.0 4.0 -1 57
+ 0.380256 2 3 ping 64 ------- 2 1.0 4.0 -1 57
r 0.380256 4 3 ping 64 ------- 3 4.0 1.0 -1 58
+ 0.380256 3 2 ping 64 ------- 3 4.0 1.0 -1 58
- 0.380256 3 2 ping 64 ------- 3 4.0 1.0 -1 58
r 0.380256 5 3 ping 64 ------- 4 5.0 0.0 -1 59
+ 0.380256 3 2 ping 64 ------- 4 5.0 0.0 -1 59
- 0.380512 2 3 ping 64 ------- 2 1.0 4.0 -1 57
- 0.380512 3 2 ping 64 ------- 4 5.0 0.0 -1 59
r 0.386536 2 0 ping 64 ------- 4 5.0 0.0 -1 52
r 0.386536 3 4 ping 64 ------- 2 1.0 4.0 -1 53
r 0.386792 2 1 ping 64 ------- 3 4.0 1.0 -1 54
r 0.386792 3 5 ping 64 ------- 1 0.0 5.0 -1 55
r 0.390512 2 3 ping 64 ------- 1 0.0 5.0 -1 56
+ 0.390512 3 5 ping 64 ------- 1 0.0 5.0 -1 56
- 0.390512 3 5 ping 64 ------- 1 0.0 5.0 -1 56
r 0.390512 3 2 ping 64 ------- 3 4.0 1.0 -1 58
+ 0.390512 2 1 ping 64 ------- 3 4.0 1.0 -1 58
- 0.390512 2 1 ping 64 ------- 3 4.0 1.0 -1 58
r 0.390768 2 3 ping 64 ------- 2 1.0 4.0 -1 57
+ 0.390768 3 4 ping 64 ------- 2 1.0 4.0 -1 57
- 0.390768 3 4 ping 64 ------- 2 1.0 4.0 -1 57
r 0.390768 3 2 ping 64 ------- 4 5.0 0.0 -1 59
+ 0.390768 2 0 ping 64 ------- 4 5.0 0.0 -1 59
- 0.390768 2 0 ping 64 ------- 4 5.0 0.0 -1 59
r 0.400768 3 5 ping 64 ------- 1 0.0 5.0 -1 56
+ 0.400768 5 3 ping 64 ------- 4 5.0 0.0 -1 60
- 0.400768 5 3 ping 64 ------- 4 5.0 0.0 -1 60
r 0.400768 2 1 ping 64 ------- 3 4.0 1.0 -1 58
+ 0.400768 1 2 ping 64 ------- 2 1.0 4.0 -1 61
- 0.400768 1 2 ping 64 ------- 2 1.0 4.0 -1 61
r 0.401024 3 4 ping 64 ------- 2 1.0 4.0 -1 57
+ 0.401024 4 3 ping 64 ------- 3 4.0 1.0 -1 62
- 0.401024 4 3 ping 64 ------- 3 4.0 1.0 -1 62
r 0.401024 2 0 ping 64 ------- 4 5.0 0.0 -1 59
+ 0.401024 0 2 ping 64 ------- 1 0.0 5.0 -1 63
- 0.401024 0 2 ping 64 ------- 1 0.0 5.0 -1 63
r 0.411024 5 3 ping 64 ------- 4 5.0 0.0 -1 60
+ 0.411024 3 2 ping 64 ------- 4 5.0 0.0 -1 60
- 0.411024 3 2 ping 64 ------- 4 5.0 0.0 -1 60
r 0.411024 1 2 ping 64 ------- 2 1.0 4.0 -1 61
+ 0.411024 2 3 ping 64 ------- 2 1.0 4.0 -1 61
- 0.411024 2 3 ping 64 ------- 2 1.0 4.0 -1 61
r 0.41128 4 3 ping 64 ------- 3 4.0 1.0 -1 62
+ 0.41128 3 2 ping 64 ------- 3 4.0 1.0 -1 62
r 0.41128 0 2 ping 64 ------- 1 0.0 5.0 -1 63
+ 0.41128 2 3 ping 64 ------- 1 0.0 5.0 -1 63
- 0.41128 3 2 ping 64 ------- 3 4.0 1.0 -1 62
- 0.41128 2 3 ping 64 ------- 1 0.0 5.0 -1 63
+ 0.415 0 2 ping 64 ------- 1 0.0 5.0 -1 64
- 0.415 0 2 ping 64 ------- 1 0.0 5.0 -1 64
+ 0.415 1 2 ping 64 ------- 2 1.0 4.0 -1 65
- 0.415 1 2 ping 64 ------- 2 1.0 4.0 -1 65
+ 0.415 4 3 ping 64 ------- 3 4.0 1.0 -1 66
- 0.415 4 3 ping 64 ------- 3 4.0 1.0 -1 66
+ 0.415 5 3 ping 64 ------- 4 5.0 0.0 -1 67
- 0.415 5 3 ping 64 ------- 4 5.0 0.0 -1 67
r 0.42128 3 2 ping 64 ------- 4 5.0 0.0 -1 60
+ 0.42128 2 0 ping 64 ------- 4 5.0 0.0 -1 60
- 0.42128 2 0 ping 64 ------- 4 5.0 0.0 -1 60
r 0.42128 2 3 ping 64 ------- 2 1.0 4.0 -1 61
+ 0.42128 3 4 ping 64 ------- 2 1.0 4.0 -1 61
- 0.42128 3 4 ping 64 ------- 2 1.0 4.0 -1 61
r 0.421536 3 2 ping 64 ------- 3 4.0 1.0 -1 62
+ 0.421536 2 1 ping 64 ------- 3 4.0 1.0 -1 62
- 0.421536 2 1 ping 64 ------- 3 4.0 1.0 -1 62
r 0.421536 2 3 ping 64 ------- 1 0.0 5.0 -1 63
+ 0.421536 3 5 ping 64 ------- 1 0.0 5.0 -1 63
- 0.421536 3 5 ping 64 ------- 1 0.0 5.0 -1 63
r 0.425256 0 2 ping 64 ------- 1 0.0 5.0 -1 64
+ 0.425256 2 3 ping 64 ------- 1 0.0 5.0 -1 64
- 0.425256 2 3 ping 64 ------- 1 0.0 5.0 -1 64
r 0.425256 1 2 ping 64 ------- 2 1.0 4.0 -1 65
+ 0.425256 2 3 ping 64 ------- 2 1.0 4.0 -1 65
r 0.425256 4 3 ping 64 ------- 3 4.0 1.0 -1 66
+ 0.425256 3 2 ping 64 ------- 3 4.0 1.0 -1 66
- 0.425256 3 2 ping 64 ------- 3 4.0 1.0 -1 66
r 0.425256 5 3 ping 64 ------- 4 5.0 0.0 -1 67
+ 0.425256 3 2 ping 64 ------- 4 5.0 0.0 -1 67
- 0.425512 2 3 ping 64 ------- 2 1.0 4.0 -1 65
- 0.425512 3 2 ping 64 ------- 4 5.0 0.0 -1 67
r 0.431536 2 0 ping 64 ------- 4 5.0 0.0 -1 60
r 0.431536 3 4 ping 64 ------- 2 1.0 4.0 -1 61
r 0.431792 2 1 ping 64 ------- 3 4.0 1.0 -1 62
r 0.431792 3 5 ping 64 ------- 1 0.0 5.0 -1 63
r 0.435512 2 3 ping 64 ------- 1 0.0 5.0 -1 64
+ 0.435512 3 5 ping 64 ------- 1 0.0 5.0 -1 64
- 0.435512 3 5 ping 64 ------- 1 0.0 5.0 -1 64
r 0.435512 3 2 ping 64 ------- 3 4.0 1.0 -1 66
+ 0.435512 2 1 ping 64 ------- 3 4.0 1.0 -1 66
- 0.435512 2 1 ping 64 ------- 3 4.0 1.0 -1 66
r 0.435768 2 3 ping 64 ------- 2 1.0 4.0 -1 65
+ 0.435768 3 4 ping 64 ------- 2 1.0 4.0 -1 65
- 0.435768 3 4 ping 64 ------- 2 1.0 4.0 -1 65
r 0.435768 3 2 ping 64 ------- 4 5.0 0.0 -1 67
+ 0.435768 2 0 ping 64 ------- 4 5.0 0.0 -1 67
- 0.435768 2 0 ping 64 ------- 4 5.0 0.0 -1 67
r 0.445768 3 5 ping 64 ------- 1 0.0 5.0 -1 64
+ 0.445768 5 3 ping 64 ------- 4 5.0 0.0 -1 68
- 0.445768 5 3 ping 64 ------- 4 5.0 0.0 -1 68
r 0.445768 2 1 ping 64 ------- 3 4.0 1.0 -1 66
+ 0.445768 1 2 ping 64 ------- 2 1.0 4.0 -1 69
- 0.445768 1 2 ping 64 ------- 2 1.0 4.0 -1 69
r 0.446024 3 4 ping 64 ------- 2 1.0 4.0 -1 65
+ 0.446024 4 3 ping 64 ------- 3 4.0 1.0 -1 70
- 0.446024 4 3 ping 64 ------- 3 4.0 1.0 -1 70
r 0.446024 2 0 ping 64 ------- 4 5.0 0.0 -1 67
+ 0.446024 0 2 ping 64 ------- 1 0.0 5.0 -1 71
- 0.446024 0 2 ping 64 ------- 1 0.0 5.0 -1 71
r 0.456024 5 3 ping 64 ------- 4 5.0 0.0 -1 68
+ 0.456024 3 2 ping 64 ------- 4 5.0 0.0 -1 68
- 0.456024 3 2 ping 64 ------- 4 5.0 0.0 -1 68
r 0.456024 1 2 ping 64 ------- 2 1.0 4.0 -1 69
+ 0.456024 2 3 ping 64 ------- 2 1.0 4.0 -1 69
- 0.456024 2 3 ping 64 ------- 2 1.0 4.0 -1 69
r 0.45628 4 3 ping 64 ------- 3 4.0 1.0 -1 70
+ 0.45628 3 2 ping 64 ------- 3 4.0 1.0 -1 70
r 0.45628 0 2 ping 64 ------- 1 0.0 5.0 -1 71
+ 0.45628 2 3 ping 64 ------- 1 0.0 5.0 -1 71
- 0.45628 3 2 ping 64 ------- 3 4.0 1.0 -1 70
- 0.45628 2 3 ping 64 ------- 1 0.0 5.0 -1 71
+ 0.46 0 2 ping 64 ------- 1 0.0 5.0 -1 72
- 0.46 0 2 ping 64 ------- 1 0.0 5.0 -1 72
+ 0.46 1 2 ping 64 ------- 2 1.0 4.0 -1 73
- 0.46 1 2 ping 64 ------- 2 1.0 4.0 -1 73
+ 0.46 4 3 ping 64 ------- 3 4.0 1.0 -1 74
- 0.46 4 3 ping 64 ------- 3 4.0 1.0 -1 74
+ 0.46 5 3 ping 64 ------- 4 5.0 0.0 -1 75
- 0.46 5 3 ping 64 ------- 4 5.0 0.0 -1 75
r 0.46628 3 2 ping 64 ------- 4 5.0 0.0 -1 68
+ 0.46628 2 0 ping 64 ------- 4 5.0 0.0 -1 68
- 0.46628 2 0 ping 64 ------- 4 5.0 0.0 -1 68
r 0.46628 2 3 ping 64 ------- 2 1.0 4.0 -1 69
+ 0.46628 3 4 ping 64 ------- 2 1.0 4.0 -1 69
- 0.46628 3 4 ping 64 ------- 2 1.0 4.0 -1 69
r 0.466536 3 2 ping 64 ------- 3 4.0 1.0 -1 70
+ 0.466536 2 1 ping 64 ------- 3 4.0 1.0 -1 70